   3   3   0   0
  0.1706667E+03  0.8000000E-09  0.8000000E-09  0.8000000E-09  0.5000000E-15
  1.000000000000000E-004
  CAR 
 unknown system                          
      5.78515664    -27.15917916  301     -7.03568071      1.00000000
    -27.159  0.0000E+00  0.0000E+00  0.0000E+00  0.0000E+00
    -27.049  0.0000E+00  0.0000E+00  0.0000E+00  0.0000E+00
    -26.940  0.0000E+00  0.0000E+00  0.0000E+00  0.0000E+00
    -26.830  0.0000E+00  0.0000E+00  0.0000E+00  0.0000E+00
    -26.720  0.0000E+00  0.0000E+00  0.0000E+00  0.0000E+00
    -26.610  0.0000E+00  0.0000E+00  0.0000E+00  0.0000E+00
    -26.500  0.0000E+00  0.0000E+00  0.0000E+00  0.0000E+00
    -26.390  0.0000E+00  0.0000E+00  0.0000E+00  0.0000E+00
    -26.281  0.0000E+00  0.0000E+00  0.0000E+00  0.0000E+00
    -26.171  0.0000E+00  0.0000E+00  0.0000E+00  0.0000E+00
    -26.061  0.0000E+00  0.0000E+00  0.0000E+00  0.0000E+00
    -25.951  0.0000E+00  0.0000E+00  0.0000E+00  0.0000E+00
    -25.841  0.0000E+00  0.0000E+00  0.0000E+00  0.0000E+00
    -25.732  0.0000E+00  0.0000E+00  0.0000E+00  0.0000E+00
    -25.622  0.4553E+00  0.4553E+00  0.5000E-01  0.5000E-01
    -25.512  0.0000E+00  0.0000E+00  0.5000E-01  0.5000E-01
    -25.402  0.0000E+00  0.0000E+00  0.5000E-01  0.5000E-01
    -25.292  0.0000E+00  0.0000E+00  0.5000E-01  0.5000E-01
    -25.183  0.0000E+00  0.0000E+00  0.5000E-01  0.5000E-01
    -25.073  0.0000E+00  0.0000E+00  0.5000E-01  0.5000E-01
    -24.963  0.0000E+00  0.0000E+00  0.5000E-01  0.5000E-01
    -24.853  0.0000E+00  0.0000E+00  0.5000E-01  0.5000E-01
    -24.743  0.0000E+00  0.0000E+00  0.5000E-01  0.5000E-01
    -24.633  0.0000E+00  0.0000E+00  0.5000E-01  0.5000E-01
    -24.524  0.0000E+00  0.0000E+00  0.5000E-01  0.5000E-01
    -24.414  0.0000E+00  0.0000E+00  0.5000E-01  0.5000E-01
    -24.304  0.0000E+00  0.0000E+00  0.5000E-01  0.5000E-01
    -24.194  0.0000E+00  0.0000E+00  0.5000E-01  0.5000E-01
    -24.084  0.0000E+00  0.0000E+00  0.5000E-01  0.5000E-01
    -23.975  0.0000E+00  0.0000E+00  0.5000E-01  0.5000E-01
    -23.865  0.0000E+00  0.0000E+00  0.5000E-01  0.5000E-01
    -23.755  0.0000E+00  0.0000E+00  0.5000E-01  0.5000E-01
    -23.645  0.0000E+00  0.0000E+00  0.5000E-01  0.5000E-01
    -23.535  0.0000E+00  0.0000E+00  0.5000E-01  0.5000E-01
    -23.425  0.0000E+00  0.0000E+00  0.5000E-01  0.5000E-01
    -23.316  0.0000E+00  0.0000E+00  0.5000E-01  0.5000E-01
    -23.206  0.0000E+00  0.0000E+00  0.5000E-01  0.5000E-01
    -23.096  0.0000E+00  0.0000E+00  0.5000E-01  0.5000E-01
    -22.986  0.0000E+00  0.0000E+00  0.5000E-01  0.5000E-01
    -22.876  0.0000E+00  0.0000E+00  0.5000E-01  0.5000E-01
    -22.767  0.0000E+00  0.0000E+00  0.5000E-01  0.5000E-01
    -22.657  0.0000E+00  0.0000E+00  0.5000E-01  0.5000E-01
    -22.547  0.0000E+00  0.0000E+00  0.5000E-01  0.5000E-01
    -22.437  0.0000E+00  0.0000E+00  0.5000E-01  0.5000E-01
    -22.327  0.0000E+00  0.0000E+00  0.5000E-01  0.5000E-01
    -22.218  0.0000E+00  0.0000E+00  0.5000E-01  0.5000E-01
    -22.108  0.0000E+00  0.0000E+00  0.5000E-01  0.5000E-01
    -21.998  0.0000E+00  0.0000E+00  0.5000E-01  0.5000E-01
    -21.888  0.0000E+00  0.0000E+00  0.5000E-01  0.5000E-01
    -21.778  0.0000E+00  0.0000E+00  0.5000E-01  0.5000E-01
    -21.668  0.0000E+00  0.0000E+00  0.5000E-01  0.5000E-01
    -21.559  0.0000E+00  0.0000E+00  0.5000E-01  0.5000E-01
    -21.449  0.0000E+00  0.0000E+00  0.5000E-01  0.5000E-01
    -21.339  0.0000E+00  0.0000E+00  0.5000E-01  0.5000E-01
    -21.229  0.0000E+00  0.0000E+00  0.5000E-01  0.5000E-01
    -21.119  0.0000E+00  0.0000E+00  0.5000E-01  0.5000E-01
    -21.010  0.0000E+00  0.0000E+00  0.5000E-01  0.5000E-01
    -20.900  0.0000E+00  0.0000E+00  0.5000E-01  0.5000E-01
    -20.790  0.0000E+00  0.0000E+00  0.5000E-01  0.5000E-01
    -20.680  0.0000E+00  0.0000E+00  0.5000E-01  0.5000E-01
    -20.570  0.0000E+00  0.0000E+00  0.5000E-01  0.5000E-01
    -20.460  0.0000E+00  0.0000E+00  0.5000E-01  0.5000E-01
    -20.351  0.0000E+00  0.0000E+00  0.5000E-01  0.5000E-01
    -20.241  0.0000E+00  0.0000E+00  0.5000E-01  0.5000E-01
    -20.131  0.0000E+00  0.0000E+00  0.5000E-01  0.5000E-01
    -20.021  0.0000E+00  0.0000E+00  0.5000E-01  0.5000E-01
    -19.911  0.0000E+00  0.0000E+00  0.5000E-01  0.5000E-01
    -19.802  0.0000E+00  0.0000E+00  0.5000E-01  0.5000E-01
    -19.692  0.0000E+00  0.0000E+00  0.5000E-01  0.5000E-01
    -19.582  0.0000E+00  0.0000E+00  0.5000E-01  0.5000E-01
    -19.472  0.0000E+00  0.0000E+00  0.5000E-01  0.5000E-01
    -19.362  0.0000E+00  0.0000E+00  0.5000E-01  0.5000E-01
    -19.253  0.0000E+00  0.0000E+00  0.5000E-01  0.5000E-01
    -19.143  0.0000E+00  0.0000E+00  0.5000E-01  0.5000E-01
    -19.033  0.0000E+00  0.0000E+00  0.5000E-01  0.5000E-01
    -18.923  0.0000E+00  0.0000E+00  0.5000E-01  0.5000E-01
    -18.813  0.0000E+00  0.0000E+00  0.5000E-01  0.5000E-01
    -18.703  0.0000E+00  0.0000E+00  0.5000E-01  0.5000E-01
    -18.594  0.0000E+00  0.0000E+00  0.5000E-01  0.5000E-01
    -18.484  0.0000E+00  0.0000E+00  0.5000E-01  0.5000E-01
    -18.374  0.0000E+00  0.0000E+00  0.5000E-01  0.5000E-01
    -18.264  0.0000E+00  0.0000E+00  0.5000E-01  0.5000E-01
    -18.154  0.0000E+00  0.0000E+00  0.5000E-01  0.5000E-01
    -18.045  0.0000E+00  0.0000E+00  0.5000E-01  0.5000E-01
    -17.935  0.0000E+00  0.0000E+00  0.5000E-01  0.5000E-01
    -17.825  0.0000E+00  0.0000E+00  0.5000E-01  0.5000E-01
    -17.715  0.0000E+00  0.0000E+00  0.5000E-01  0.5000E-01
    -17.605  0.0000E+00  0.0000E+00  0.5000E-01  0.5000E-01
    -17.496  0.0000E+00  0.0000E+00  0.5000E-01  0.5000E-01
    -17.386  0.0000E+00  0.0000E+00  0.5000E-01  0.5000E-01
    -17.276  0.0000E+00  0.0000E+00  0.5000E-01  0.5000E-01
    -17.166  0.0000E+00  0.0000E+00  0.5000E-01  0.5000E-01
    -17.056  0.0000E+00  0.0000E+00  0.5000E-01  0.5000E-01
    -16.946  0.0000E+00  0.0000E+00  0.5000E-01  0.5000E-01
    -16.837  0.0000E+00  0.0000E+00  0.5000E-01  0.5000E-01
    -16.727  0.0000E+00  0.0000E+00  0.5000E-01  0.5000E-01
    -16.617  0.0000E+00  0.0000E+00  0.5000E-01  0.5000E-01
    -16.507  0.0000E+00  0.0000E+00  0.5000E-01  0.5000E-01
    -16.397  0.0000E+00  0.0000E+00  0.5000E-01  0.5000E-01
    -16.288  0.0000E+00  0.0000E+00  0.5000E-01  0.5000E-01
    -16.178  0.0000E+00  0.0000E+00  0.5000E-01  0.5000E-01
    -16.068  0.0000E+00  0.0000E+00  0.5000E-01  0.5000E-01
    -15.958  0.0000E+00  0.0000E+00  0.5000E-01  0.5000E-01
    -15.848  0.0000E+00  0.0000E+00  0.5000E-01  0.5000E-01
    -15.738  0.0000E+00  0.0000E+00  0.5000E-01  0.5000E-01
    -15.629  0.0000E+00  0.0000E+00  0.5000E-01  0.5000E-01
    -15.519  0.0000E+00  0.0000E+00  0.5000E-01  0.5000E-01
    -15.409  0.0000E+00  0.0000E+00  0.5000E-01  0.5000E-01
    -15.299  0.0000E+00  0.0000E+00  0.5000E-01  0.5000E-01
    -15.189  0.0000E+00  0.0000E+00  0.5000E-01  0.5000E-01
    -15.080  0.0000E+00  0.0000E+00  0.5000E-01  0.5000E-01
    -14.970  0.0000E+00  0.0000E+00  0.5000E-01  0.5000E-01
    -14.860  0.0000E+00  0.0000E+00  0.5000E-01  0.5000E-01
    -14.750  0.0000E+00  0.0000E+00  0.5000E-01  0.5000E-01
    -14.640  0.0000E+00  0.0000E+00  0.5000E-01  0.5000E-01
    -14.531  0.0000E+00  0.0000E+00  0.5000E-01  0.5000E-01
    -14.421  0.0000E+00  0.0000E+00  0.5000E-01  0.5000E-01
    -14.311  0.0000E+00  0.0000E+00  0.5000E-01  0.5000E-01
    -14.201  0.0000E+00  0.0000E+00  0.5000E-01  0.5000E-01
    -14.091  0.0000E+00  0.0000E+00  0.5000E-01  0.5000E-01
    -13.981  0.0000E+00  0.0000E+00  0.5000E-01  0.5000E-01
    -13.872  0.0000E+00  0.0000E+00  0.5000E-01  0.5000E-01
    -13.762  0.0000E+00  0.0000E+00  0.5000E-01  0.5000E-01
    -13.652  0.0000E+00  0.0000E+00  0.5000E-01  0.5000E-01
    -13.542  0.0000E+00  0.0000E+00  0.5000E-01  0.5000E-01
    -13.432  0.0000E+00  0.0000E+00  0.5000E-01  0.5000E-01
    -13.323  0.0000E+00  0.0000E+00  0.5000E-01  0.5000E-01
    -13.213  0.0000E+00  0.0000E+00  0.5000E-01  0.5000E-01
    -13.103  0.4552E+00  0.4552E+00  0.9998E-01  0.9998E-01
    -12.993  0.0000E+00  0.0000E+00  0.1000E+00  0.1000E+00
    -12.883  0.0000E+00  0.0000E+00  0.1000E+00  0.1000E+00
    -12.773  0.0000E+00  0.0000E+00  0.1000E+00  0.1000E+00
    -12.664  0.0000E+00  0.0000E+00  0.1000E+00  0.1000E+00
    -12.554  0.0000E+00  0.0000E+00  0.1000E+00  0.1000E+00
    -12.444  0.0000E+00  0.0000E+00  0.1000E+00  0.1000E+00
    -12.334  0.0000E+00  0.0000E+00  0.1000E+00  0.1000E+00
    -12.224  0.0000E+00  0.0000E+00  0.1000E+00  0.1000E+00
    -12.115  0.0000E+00  0.0000E+00  0.1000E+00  0.1000E+00
    -12.005  0.0000E+00  0.0000E+00  0.1000E+00  0.1000E+00
    -11.895  0.0000E+00  0.0000E+00  0.1000E+00  0.1000E+00
    -11.785  0.0000E+00  0.0000E+00  0.1000E+00  0.1000E+00
    -11.675  0.0000E+00  0.0000E+00  0.1000E+00  0.1000E+00
    -11.566  0.0000E+00  0.0000E+00  0.1000E+00  0.1000E+00
    -11.456  0.0000E+00  0.0000E+00  0.1000E+00  0.1000E+00
    -11.346  0.0000E+00  0.0000E+00  0.1000E+00  0.1000E+00
    -11.236  0.0000E+00  0.0000E+00  0.1000E+00  0.1000E+00
    -11.126  0.0000E+00  0.0000E+00  0.1000E+00  0.1000E+00
    -11.016  0.0000E+00  0.0000E+00  0.1000E+00  0.1000E+00
    -10.907  0.0000E+00  0.0000E+00  0.1000E+00  0.1000E+00
    -10.797  0.0000E+00  0.0000E+00  0.1000E+00  0.1000E+00
    -10.687  0.0000E+00  0.0000E+00  0.1000E+00  0.1000E+00
    -10.577  0.0000E+00  0.0000E+00  0.1000E+00  0.1000E+00
    -10.467  0.0000E+00  0.0000E+00  0.1000E+00  0.1000E+00
    -10.358  0.0000E+00  0.0000E+00  0.1000E+00  0.1000E+00
    -10.248  0.0000E+00  0.0000E+00  0.1000E+00  0.1000E+00
    -10.138  0.0000E+00  0.0000E+00  0.1000E+00  0.1000E+00
    -10.028  0.0000E+00  0.0000E+00  0.1000E+00  0.1000E+00
     -9.918  0.0000E+00  0.0000E+00  0.1000E+00  0.1000E+00
     -9.808  0.0000E+00  0.0000E+00  0.1000E+00  0.1000E+00
     -9.699  0.0000E+00  0.0000E+00  0.1000E+00  0.1000E+00
     -9.589  0.0000E+00  0.0000E+00  0.1000E+00  0.1000E+00
     -9.479  0.0000E+00  0.0000E+00  0.1000E+00  0.1000E+00
     -9.369  0.0000E+00  0.0000E+00  0.1000E+00  0.1000E+00
     -9.259  0.3674E+00  0.3674E+00  0.1404E+00  0.1404E+00
     -9.150  0.0000E+00  0.0000E+00  0.1500E+00  0.1500E+00
     -9.040  0.0000E+00  0.0000E+00  0.1500E+00  0.1500E+00
     -8.930  0.0000E+00  0.0000E+00  0.1500E+00  0.1500E+00
     -8.820  0.0000E+00  0.0000E+00  0.1500E+00  0.1500E+00
     -8.710  0.0000E+00  0.0000E+00  0.1500E+00  0.1500E+00
     -8.601  0.0000E+00  0.0000E+00  0.1500E+00  0.1500E+00
     -8.491  0.0000E+00  0.0000E+00  0.1500E+00  0.1500E+00
     -8.381  0.0000E+00  0.0000E+00  0.1500E+00  0.1500E+00
     -8.271  0.0000E+00  0.0000E+00  0.1500E+00  0.1500E+00
     -8.161  0.0000E+00  0.0000E+00  0.1500E+00  0.1500E+00
     -8.051  0.0000E+00  0.0000E+00  0.1500E+00  0.1500E+00
     -7.942  0.0000E+00  0.0000E+00  0.1500E+00  0.1500E+00
     -7.832  0.0000E+00  0.0000E+00  0.1500E+00  0.1500E+00
     -7.722  0.0000E+00  0.0000E+00  0.1500E+00  0.1500E+00
     -7.612  0.0000E+00  0.0000E+00  0.1500E+00  0.1500E+00
     -7.502  0.0000E+00  0.0000E+00  0.1500E+00  0.1500E+00
     -7.393  0.0000E+00  0.0000E+00  0.1500E+00  0.1500E+00
     -7.283  0.0000E+00  0.0000E+00  0.1500E+00  0.1500E+00
     -7.173  0.1371E-07  0.1371E-07  0.1500E+00  0.1500E+00
     -7.063  0.4553E+00  0.4553E+00  0.2000E+00  0.2000E+00
     -6.953  0.0000E+00  0.0000E+00  0.2000E+00  0.2000E+00
     -6.844  0.0000E+00  0.0000E+00  0.2000E+00  0.2000E+00
     -6.734  0.0000E+00  0.0000E+00  0.2000E+00  0.2000E+00
     -6.624  0.0000E+00  0.0000E+00  0.2000E+00  0.2000E+00
     -6.514  0.0000E+00  0.0000E+00  0.2000E+00  0.2000E+00
     -6.404  0.0000E+00  0.0000E+00  0.2000E+00  0.2000E+00
     -6.294  0.0000E+00  0.0000E+00  0.2000E+00  0.2000E+00
     -6.185  0.0000E+00  0.0000E+00  0.2000E+00  0.2000E+00
     -6.075  0.0000E+00  0.0000E+00  0.2000E+00  0.2000E+00
     -5.965  0.0000E+00  0.0000E+00  0.2000E+00  0.2000E+00
     -5.855  0.0000E+00  0.0000E+00  0.2000E+00  0.2000E+00
     -5.745  0.0000E+00  0.0000E+00  0.2000E+00  0.2000E+00
     -5.636  0.0000E+00  0.0000E+00  0.2000E+00  0.2000E+00
     -5.526  0.0000E+00  0.0000E+00  0.2000E+00  0.2000E+00
     -5.416  0.0000E+00  0.0000E+00  0.2000E+00  0.2000E+00
     -5.306  0.0000E+00  0.0000E+00  0.2000E+00  0.2000E+00
     -5.196  0.0000E+00  0.0000E+00  0.2000E+00  0.2000E+00
     -5.086  0.0000E+00  0.0000E+00  0.2000E+00  0.2000E+00
     -4.977  0.0000E+00  0.0000E+00  0.2000E+00  0.2000E+00
     -4.867  0.0000E+00  0.0000E+00  0.2000E+00  0.2000E+00
     -4.757  0.0000E+00  0.0000E+00  0.2000E+00  0.2000E+00
     -4.647  0.0000E+00  0.0000E+00  0.2000E+00  0.2000E+00
     -4.537  0.0000E+00  0.0000E+00  0.2000E+00  0.2000E+00
     -4.428  0.0000E+00  0.0000E+00  0.2000E+00  0.2000E+00
     -4.318  0.0000E+00  0.0000E+00  0.2000E+00  0.2000E+00
     -4.208  0.0000E+00  0.0000E+00  0.2000E+00  0.2000E+00
     -4.098  0.0000E+00  0.0000E+00  0.2000E+00  0.2000E+00
     -3.988  0.0000E+00  0.0000E+00  0.2000E+00  0.2000E+00
     -3.879  0.0000E+00  0.0000E+00  0.2000E+00  0.2000E+00
     -3.769  0.0000E+00  0.0000E+00  0.2000E+00  0.2000E+00
     -3.659  0.0000E+00  0.0000E+00  0.2000E+00  0.2000E+00
     -3.549  0.0000E+00  0.0000E+00  0.2000E+00  0.2000E+00
     -3.439  0.0000E+00  0.0000E+00  0.2000E+00  0.2000E+00
     -3.329  0.0000E+00  0.0000E+00  0.2000E+00  0.2000E+00
     -3.220  0.0000E+00  0.0000E+00  0.2000E+00  0.2000E+00
     -3.110  0.0000E+00  0.0000E+00  0.2000E+00  0.2000E+00
     -3.000  0.0000E+00  0.0000E+00  0.2000E+00  0.2000E+00
     -2.890  0.0000E+00  0.0000E+00  0.2000E+00  0.2000E+00
     -2.780  0.0000E+00  0.0000E+00  0.2000E+00  0.2000E+00
     -2.671  0.0000E+00  0.0000E+00  0.2000E+00  0.2000E+00
     -2.561  0.0000E+00  0.0000E+00  0.2000E+00  0.2000E+00
     -2.451  0.0000E+00  0.0000E+00  0.2000E+00  0.2000E+00
     -2.341  0.0000E+00  0.0000E+00  0.2000E+00  0.2000E+00
     -2.231  0.0000E+00  0.0000E+00  0.2000E+00  0.2000E+00
     -2.121  0.0000E+00  0.0000E+00  0.2000E+00  0.2000E+00
     -2.012  0.0000E+00  0.0000E+00  0.2000E+00  0.2000E+00
     -1.902  0.0000E+00  0.0000E+00  0.2000E+00  0.2000E+00
     -1.792  0.0000E+00  0.0000E+00  0.2000E+00  0.2000E+00
     -1.682  0.0000E+00  0.0000E+00  0.2000E+00  0.2000E+00
     -1.572  0.0000E+00  0.0000E+00  0.2000E+00  0.2000E+00
     -1.463  0.0000E+00  0.0000E+00  0.2000E+00  0.2000E+00
     -1.353  0.0000E+00  0.0000E+00  0.2000E+00  0.2000E+00
     -1.243  0.0000E+00  0.0000E+00  0.2000E+00  0.2000E+00
     -1.133  0.1908E-08  0.1910E-08  0.2000E+00  0.2000E+00
     -1.023  0.4553E+00  0.4553E+00  0.2500E+00  0.2500E+00
     -0.914  0.0000E+00  0.0000E+00  0.2500E+00  0.2500E+00
     -0.804  0.0000E+00  0.0000E+00  0.2500E+00  0.2500E+00
     -0.694  0.0000E+00  0.0000E+00  0.2500E+00  0.2500E+00
     -0.584  0.0000E+00  0.0000E+00  0.2500E+00  0.2500E+00
     -0.474  0.0000E+00  0.0000E+00  0.2500E+00  0.2500E+00
     -0.364  0.0000E+00  0.0000E+00  0.2500E+00  0.2500E+00
     -0.255  0.0000E+00  0.0000E+00  0.2500E+00  0.2500E+00
     -0.145  0.0000E+00  0.0000E+00  0.2500E+00  0.2500E+00
     -0.035  0.0000E+00  0.0000E+00  0.2500E+00  0.2500E+00
      0.075  0.0000E+00  0.0000E+00  0.2500E+00  0.2500E+00
      0.185  0.0000E+00  0.0000E+00  0.2500E+00  0.2500E+00
      0.294  0.0000E+00  0.0000E+00  0.2500E+00  0.2500E+00
      0.404  0.0000E+00  0.0000E+00  0.2500E+00  0.2500E+00
      0.514  0.0000E+00  0.0000E+00  0.2500E+00  0.2500E+00
      0.624  0.0000E+00  0.0000E+00  0.2500E+00  0.2500E+00
      0.734  0.0000E+00  0.0000E+00  0.2500E+00  0.2500E+00
      0.844  0.0000E+00  0.0000E+00  0.2500E+00  0.2500E+00
      0.953  0.1011E-15  0.1011E-15  0.2500E+00  0.2500E+00
      1.063  0.4553E+00  0.4553E+00  0.3000E+00  0.3000E+00
      1.173  0.0000E+00  0.0000E+00  0.3000E+00  0.3000E+00
      1.283  0.4553E+00  0.4553E+00  0.3500E+00  0.3500E+00
      1.393  0.0000E+00  0.0000E+00  0.3500E+00  0.3500E+00
      1.502  0.0000E+00  0.0000E+00  0.3500E+00  0.3500E+00
      1.612  0.2527E-16  0.2527E-16  0.3500E+00  0.3500E+00
      1.722  0.5481E+00  0.5481E+00  0.4102E+00  0.4102E+00
      1.832  0.4164E-06  0.4176E-06  0.4500E+00  0.4500E+00
      1.942  0.4553E+00  0.4553E+00  0.5000E+00  0.5000E+00
      2.051  0.4553E+00  0.4553E+00  0.5500E+00  0.5500E+00
      2.161  0.0000E+00  0.0000E+00  0.5500E+00  0.5500E+00
      2.271  0.0000E+00  0.0000E+00  0.5500E+00  0.5500E+00
      2.381  0.0000E+00  0.0000E+00  0.5500E+00  0.5500E+00
      2.491  0.0000E+00  0.0000E+00  0.5500E+00  0.5500E+00
      2.601  0.0000E+00  0.0000E+00  0.5500E+00  0.5500E+00
      2.710  0.0000E+00  0.0000E+00  0.5500E+00  0.5500E+00
      2.820  0.0000E+00  0.0000E+00  0.5500E+00  0.5500E+00
      2.930  0.0000E+00  0.0000E+00  0.5500E+00  0.5500E+00
      3.040  0.4529E+00  0.4529E+00  0.5997E+00  0.5997E+00
      3.150  0.0000E+00  0.0000E+00  0.6000E+00  0.6000E+00
      3.259  0.0000E+00  0.0000E+00  0.6000E+00  0.6000E+00
      3.369  0.0000E+00  0.0000E+00  0.6000E+00  0.6000E+00
      3.479  0.0000E+00  0.0000E+00  0.6000E+00  0.6000E+00
      3.589  0.2780E-15  0.2780E-15  0.6000E+00  0.6000E+00
      3.699  0.4557E+00  0.4557E+00  0.6500E+00  0.6500E+00
      3.808  0.4466E+00  0.4466E+00  0.7490E+00  0.7490E+00
      3.918  0.1238E-10  0.1236E-10  0.7500E+00  0.7500E+00
      4.028  0.9106E+00  0.9106E+00  0.8500E+00  0.8500E+00
      4.138  0.6737E-07  0.6732E-07  0.8500E+00  0.8500E+00
      4.248  0.7026E+00  0.7027E+00  0.9272E+00  0.9272E+00
      4.358  0.4553E+00  0.4553E+00  0.1000E+01  0.1000E+01
      4.467  0.0000E+00  0.0000E+00  0.1000E+01  0.1000E+01
      4.577  0.0000E+00  0.0000E+00  0.1000E+01  0.1000E+01
      4.687  0.0000E+00  0.0000E+00  0.1000E+01  0.1000E+01
      4.797  0.0000E+00  0.0000E+00  0.1000E+01  0.1000E+01
      4.907  0.0000E+00  0.0000E+00  0.1000E+01  0.1000E+01
      5.016  0.0000E+00  0.0000E+00  0.1000E+01  0.1000E+01
      5.126  0.0000E+00  0.0000E+00  0.1000E+01  0.1000E+01
      5.236  0.0000E+00  0.0000E+00  0.1000E+01  0.1000E+01
      5.346  0.0000E+00  0.0000E+00  0.1000E+01  0.1000E+01
      5.456  0.0000E+00  0.0000E+00  0.1000E+01  0.1000E+01
      5.566  0.0000E+00  0.0000E+00  0.1000E+01  0.1000E+01
      5.675  0.0000E+00  0.0000E+00  0.1000E+01  0.1000E+01
      5.785  0.0000E+00  0.0000E+00  0.1000E+01  0.1000E+01
