    3    3   20    2
  0.1706667E+03  0.8000000E-09  0.8000000E-09  0.8000000E-09  0.5000000E-15
  1.000000000000000E-004
  CAR 
 unknown system                          
    8    1   20
 
  0.0000000E+00  0.0000000E+00  0.0000000E+00  0.1000000E+01
   1      -25.661709    -25.661709
   2      -13.126891    -13.126892
   3       -9.265554     -9.265554
   4       -7.134637     -7.134637
   5       -1.092420     -1.092421
   6        1.010866      1.010865
   7        1.247872      1.247871
   8        1.670559      1.670559
   9        1.727876      1.727876
  10        1.865576      1.865572
  11        1.982607      1.982605
  12        3.021770      3.021771
  13        3.645439      3.645437
  14        3.720819      3.720818
  15        3.793855      3.793855
  16        3.964686      3.964687
  17        3.985968      3.985963
  18        4.174186      4.174187
  19        4.246989      4.246985
  20        4.287686      4.287687
