 running on    1 nodes
 distr:  one band on    1 nodes,    1 groups
 vasp.5.2.12 11Nov11 complex                                                    
  
 POSCAR found :  2 types and       3 ions
 LDA part: xc-table for Pade appr. of Perdew
 POSCAR, INCAR and KPOINTS ok, starting setup
 WARNING: small aliasing (wrap around) errors must be expected
 FFT: planning ...(           2 )
 WAVECAR not read
 entering main loop
       N       E                     dE             d eps       ncg     rms          rms(c)
DAV:   1     0.412886303037E+02    0.41289E+02   -0.15716E+03    96   0.107E+02
DAV:   2    -0.935844548239E+01   -0.50647E+02   -0.49703E+02   116   0.573E+01
DAV:   3    -0.123876834808E+02   -0.30292E+01   -0.30243E+01   100   0.160E+01
DAV:   4    -0.124040609519E+02   -0.16377E-01   -0.16367E-01   112   0.138E+00
DAV:   5    -0.124041956660E+02   -0.13471E-03   -0.13471E-03    88   0.116E-01    0.127E+01
DAV:   6    -0.582906157145E+01    0.65751E+01   -0.14217E+01    92   0.111E+01    0.481E+00
DAV:   7    -0.125430142203E+02   -0.67140E+01   -0.34917E+00    84   0.449E+00    0.273E+00
DAV:   8    -0.142441189595E+02   -0.17011E+01   -0.35825E-01    96   0.167E+00    0.151E+00
DAV:   9    -0.143328305386E+02   -0.88712E-01   -0.12658E-01    88   0.116E+00    0.410E-01
DAV:  10    -0.143587709144E+02   -0.25940E-01   -0.11517E-02   104   0.331E-01    0.174E-01
DAV:  11    -0.144213474190E+02   -0.62577E-01   -0.22233E-02    96   0.374E-01    0.195E-01
DAV:  12    -0.144185090207E+02    0.28384E-02   -0.25215E-03   104   0.155E-01    0.104E-01
DAV:  13    -0.144285639907E+02   -0.10055E-01   -0.67244E-03    88   0.251E-01    0.124E-01
DAV:  14    -0.144318208007E+02   -0.32568E-02   -0.16942E-03   120   0.122E-01    0.330E-02
DAV:  15    -0.144345802991E+02   -0.27595E-02   -0.73030E-04    88   0.811E-02    0.384E-02
DAV:  16    -0.144347975974E+02   -0.21730E-03   -0.69922E-05   104   0.263E-02    0.184E-02
DAV:  17    -0.144356713094E+02   -0.87371E-03   -0.11470E-04    80   0.289E-02    0.530E-03
DAV:  18    -0.144358941551E+02   -0.22285E-03   -0.15269E-05    96   0.105E-02    0.232E-03
DAV:  19    -0.144359672897E+02   -0.73135E-04   -0.28037E-06   108   0.444E-03    0.136E-03
DAV:  20    -0.144360061459E+02   -0.38856E-04   -0.12681E-06   112   0.357E-03    0.545E-04
DAV:  21    -0.144360133241E+02   -0.71782E-05   -0.14632E-07   104   0.127E-03    0.291E-04
DAV:  22    -0.144360167053E+02   -0.33812E-05   -0.70618E-08   104   0.900E-04    0.241E-04
DAV:  23    -0.144360172209E+02   -0.51562E-06   -0.12092E-08    96   0.387E-04    0.769E-05
DAV:  24    -0.144360176330E+02   -0.41210E-06   -0.98016E-09    96   0.349E-04    0.966E-05
DAV:  25    -0.144360176813E+02   -0.48306E-07   -0.24062E-09   112   0.183E-04    0.301E-05
DAV:  26    -0.144360177208E+02   -0.39429E-07   -0.62250E-10    88   0.918E-05    0.230E-05
DAV:  27    -0.144360177352E+02   -0.14404E-07   -0.28257E-10   108   0.612E-05    0.837E-06
DAV:  28    -0.144360177374E+02   -0.22616E-08   -0.47091E-11   104   0.260E-05
   1 F= -.14436018E+02 E0= -.14436018E+02  d E =-.144360E+02  mag=     0.0000
 curvature:   0.00 expect dE= 0.000E+00 dE for cont linesearch  0.000E+00
 trial: gam= 0.00000 g(F)=  0.194E-01 g(S)=  0.000E+00 ort = 0.000E+00 (trialstep = 0.100E+01)
 search vector abs. value=  0.194E-01
 bond charge predicted
       N       E                     dE             d eps       ncg     rms          rms(c)
DAV:   1    -0.144200666174E+02    0.15951E-01   -0.30756E+00    96   0.713E+00    0.621E-01
DAV:   2    -0.144149725222E+02    0.50941E-02   -0.45763E-02   104   0.723E-01    0.217E-01
DAV:   3    -0.144152985984E+02   -0.32608E-03   -0.26796E-03   120   0.178E-01    0.887E-02
DAV:   4    -0.144155758853E+02   -0.27729E-03   -0.39426E-04   104   0.737E-02    0.302E-02
DAV:   5    -0.144156217465E+02   -0.45861E-04   -0.62061E-05    96   0.287E-02    0.586E-03
DAV:   6    -0.144156490651E+02   -0.27319E-04   -0.67636E-06   128   0.906E-03    0.458E-03
DAV:   7    -0.144156685804E+02   -0.19515E-04   -0.41296E-06   112   0.622E-03    0.216E-03
DAV:   8    -0.144156862092E+02   -0.17629E-04   -0.47060E-07   104   0.189E-03    0.165E-03
DAV:   9    -0.144156982387E+02   -0.12029E-04   -0.58446E-07   104   0.214E-03    0.466E-04
DAV:  10    -0.144157027290E+02   -0.44903E-05   -0.82117E-08   104   0.968E-04    0.349E-04
DAV:  11    -0.144157043348E+02   -0.16059E-05   -0.23722E-08   104   0.513E-04    0.169E-04
DAV:  12    -0.144157047164E+02   -0.38160E-06   -0.45733E-09   112   0.258E-04    0.812E-05
DAV:  13    -0.144157048614E+02   -0.14497E-06   -0.16612E-09    96   0.152E-04    0.352E-05
DAV:  14    -0.144157048811E+02   -0.19645E-07   -0.26827E-10   112   0.562E-05    0.222E-05
DAV:  15    -0.144157048825E+02   -0.14558E-08   -0.15525E-11    96   0.215E-05
   2 F= -.14415705E+02 E0= -.14415705E+02  d E =0.203129E-01  mag=     0.0000
 trial-energy change:    0.020313  1 .order    0.021917   -0.019402    0.063236
 step:   0.2570(harm=  0.2348)  dis= 0.00293  next Energy=   -14.438538 (dE=-0.252E-02)
 bond charge predicted
       N       E                     dE             d eps       ncg     rms          rms(c)
DAV:   1    -0.144413951969E+02   -0.25690E-01   -0.16979E+00    96   0.530E+00    0.482E-01
DAV:   2    -0.144382553808E+02    0.31398E-02   -0.28239E-02   104   0.563E-01    0.152E-01
DAV:   3    -0.144382752583E+02   -0.19877E-04   -0.75888E-04   112   0.103E-01    0.726E-02
DAV:   4    -0.144384519701E+02   -0.17671E-03   -0.25413E-04   112   0.663E-02    0.108E-02
DAV:   5    -0.144384699768E+02   -0.18007E-04   -0.23344E-05    96   0.172E-02    0.507E-03
DAV:   6    -0.144384894653E+02   -0.19488E-04   -0.23518E-06   112   0.566E-03    0.268E-03
DAV:   7    -0.144385057936E+02   -0.16328E-04   -0.17245E-06    80   0.410E-03    0.170E-03
DAV:   8    -0.144385244280E+02   -0.18634E-04   -0.11389E-06   112   0.297E-03    0.904E-04
DAV:   9    -0.144385285025E+02   -0.40745E-05   -0.68191E-08    96   0.850E-04    0.384E-04
DAV:  10    -0.144385311823E+02   -0.26798E-05   -0.56628E-08   112   0.790E-04    0.298E-04
DAV:  11    -0.144385318782E+02   -0.69589E-06   -0.11369E-08   112   0.345E-04    0.104E-04
DAV:  12    -0.144385320630E+02   -0.18478E-06   -0.26975E-09   112   0.194E-04    0.701E-05
DAV:  13    -0.144385321109E+02   -0.47949E-07   -0.85813E-10   104   0.103E-04    0.325E-05
DAV:  14    -0.144385321133E+02   -0.24245E-08   -0.12651E-10   108   0.372E-05
   3 F= -.14438532E+02 E0= -.14438532E+02  d E =-.251438E-02  mag=     0.0000
 curvature:  -0.12 expect dE=-0.153E-05 dE for cont linesearch -0.254E-07
 trial: gam= 0.00401 g(F)=  0.130E-04 g(S)=  0.000E+00 ort =-0.648E-04 (trialstep = 0.851E+00)
 search vector abs. value=  0.128E-04
 bond charge predicted
       N       E                     dE             d eps       ncg     rms          rms(c)
DAV:   1    -0.144385391969E+02   -0.70859E-05   -0.42404E-04    80   0.856E-02    0.612E-03
DAV:   2    -0.144385389961E+02    0.20077E-06   -0.25775E-06    88   0.606E-03    0.304E-03
DAV:   3    -0.144385391487E+02   -0.15266E-06   -0.12674E-07    92   0.116E-03    0.907E-04
DAV:   4    -0.144385391537E+02   -0.49337E-08   -0.11284E-08   112   0.345E-04
   4 F= -.14438539E+02 E0= -.14438539E+02  d E =-.704034E-05  mag=     0.0000
 trial-energy change:   -0.000007  1 .order   -0.000007   -0.000011   -0.000004
 step:   1.6165(harm=  1.2987)  dis= 0.00075  next Energy=   -14.438541 (dE=-0.853E-05)
 bond charge predicted
       N       E                     dE             d eps       ncg     rms          rms(c)
DAV:   1    -0.144385394589E+02   -0.31015E-06   -0.34207E-04    88   0.769E-02    0.543E-03
DAV:   2    -0.144385392651E+02    0.19381E-06   -0.20690E-06    96   0.542E-03    0.270E-03
DAV:   3    -0.144385393700E+02   -0.10488E-06   -0.10612E-07    96   0.106E-03    0.802E-04
DAV:   4    -0.144385394015E+02   -0.31519E-07   -0.97648E-09   104   0.318E-04    0.207E-04
DAV:   5    -0.144385394894E+02   -0.87963E-07   -0.78296E-09    88   0.265E-04    0.137E-04
DAV:   6    -0.144385396106E+02   -0.12113E-06   -0.41054E-09    88   0.203E-04    0.576E-05
DAV:   7    -0.144385396564E+02   -0.45833E-07   -0.64298E-10   108   0.947E-05    0.448E-05
DAV:   8    -0.144385396909E+02   -0.34551E-07   -0.58624E-10    96   0.851E-05    0.181E-05
DAV:   9    -0.144385397026E+02   -0.11687E-07   -0.11930E-10    96   0.401E-05    0.112E-05
DAV:  10    -0.144385397061E+02   -0.34800E-08   -0.58717E-11    96   0.263E-05
   5 F= -.14438540E+02 E0= -.14438540E+02  d E =-.759278E-05  mag=     0.0000
 curvature:  -0.32 expect dE=-0.267E-06 dE for cont linesearch -0.237E-06
 ZBRENT: interpolating
 opt :   1.3018  next Energy=   -14.438540 (dE=-0.808E-05)
 bond charge predicted
       N       E                     dE             d eps       ncg     rms          rms(c)
DAV:   1    -0.144385401547E+02   -0.45205E-06   -0.57931E-05    96   0.316E-02    0.227E-03
DAV:   2    -0.144385401488E+02    0.59047E-08   -0.37264E-07    96   0.229E-03    0.112E-03
DAV:   3    -0.144385401948E+02   -0.45983E-07   -0.18154E-08    96   0.439E-04    0.358E-04
DAV:   4    -0.144385402076E+02   -0.12817E-07   -0.16655E-09    96   0.135E-04    0.839E-05
DAV:   5    -0.144385402148E+02   -0.72530E-08   -0.10308E-09   112   0.980E-05
   6 F= -.14438540E+02 E0= -.14438540E+02  d E =-.810149E-05  mag=     0.0000
 curvature:  -0.66 expect dE=-0.806E-07 dE for cont linesearch -0.962E-11
 trial: gam=-0.00666 g(F)=  0.123E-06 g(S)=  0.000E+00 ort = 0.137E-07 (trialstep = 0.941E+00)
 search vector abs. value=  0.123E-06
 bond charge predicted
       N       E                     dE             d eps       ncg     rms          rms(c)
DAV:   1    -0.144385401416E+02    0.65991E-07   -0.17595E-05   112   0.171E-02    0.158E-03
DAV:   2    -0.144385400924E+02    0.49149E-07   -0.38342E-07   120   0.212E-03    0.479E-04
DAV:   3    -0.144385400887E+02    0.37298E-08   -0.72655E-09   112   0.320E-04
   7 F= -.14438540E+02 E0= -.14438540E+02  d E =0.126123E-06  mag=     0.0000
 trial-energy change:    0.000000  1 .order    0.000000    0.000000    0.000000
 step:   0.2505(harm=  0.2505)  dis= 0.00001  next Energy=   -14.438540 (dE=-0.154E-07)
 bond charge predicted
       N       E                     dE             d eps       ncg     rms          rms(c)
DAV:   1    -0.144385402136E+02   -0.12112E-06   -0.96797E-06    80   0.127E-02    0.111E-03
DAV:   2    -0.144385402204E+02   -0.68111E-08   -0.19586E-07   104   0.151E-03    0.338E-04
DAV:   3    -0.144385402302E+02   -0.97992E-08   -0.34809E-09    96   0.229E-04
   8 F= -.14438540E+02 E0= -.14438540E+02  d E =-.153379E-07  mag=     0.0000
 curvature:  -0.13 expect dE=-0.135E-11 dE for cont linesearch -0.130E-11
 trial: gam=-0.00918 g(F)=  0.107E-10 g(S)=  0.000E+00 ort = 0.113E-08 (trialstep = 0.803E+00)
 search vector abs. value=  0.100E-09
 reached required accuracy - stopping structural energy minimisation
 writing wavefunctions
NPROCS =  1
