 vasp.5.2.12 11Nov11 complex                                                    
  
 executed on             LinuxIFC date 2012.10.27  16:07:40
 running on    1 nodes
 distr:  one band on    1 nodes,    1 groups


--------------------------------------------------------------------------------------------------------


 INCAR:
 POTCAR:   PAW_PBE H 15Jun2001                    
 POTCAR:   PAW_PBE O 08Apr2002                    
 POTCAR:   PAW_PBE H 15Jun2001                    
   VRHFIN =H: ultrasoft test                                                    
   LEXCH  = PE                                                                  
   EATOM  =    12.4884 eV,     .9179 Ry                                         
                                                                                
   TITEL  = PAW_PBE H 15Jun2001                                                 
   LULTRA =        F    use ultrasoft PP ?                                      
   IUNSCR =        0    unscreen: 0-lin 1-nonlin 2-no                           
   RPACOR =     .000    partial core radius                                     
   POMASS =    1.000; ZVAL   =    1.000    mass and valenz                      
   RCORE  =    1.100    outmost cutoff radius                                   
   RWIGS  =     .700; RWIGS  =     .370    wigner-seitz radius (au A)           
   ENMAX  =  250.000; ENMIN  =  200.000 eV                                      
   RCLOC  =     .701    cutoff for local pot                                    
   LCOR   =        T    correct aug charges                                     
   LPAW   =        T    paw PP                                                  
   EAUG   =  400.000                                                            
   RMAX   =    2.174    core radius for proj-oper                               
   RAUG   =    1.200    factor for augmentation sphere                          
   RDEP   =    1.112    radius for radial grids                                 
   QCUT   =   -5.749; QGAM   =   11.498    optimization parameters              
                                                                                
   Description                                                                  
     l     E      TYP  RCUT    TYP  RCUT                                        
     0   .000     23  1.100                                                     
     0   .500     23  1.100                                                     
     1  -.300     23  1.100                                                     
  local pseudopotential read in
  atomic valenz-charges read in
  non local Contribution for L=           0  read in
    real space projection operators read in
  non local Contribution for L=           0  read in
    real space projection operators read in
  non local Contribution for L=           1  read in
    real space projection operators read in
    PAW grid and wavefunctions read in
 
   number of l-projection  operators is LMAX  =           3
   number of lm-projection operators is LMMAX =           5
 
 POTCAR:   PAW_PBE O 08Apr2002                    
   VRHFIN =O: s2p4                                                              
   LEXCH  = PE                                                                  
   EATOM  =   432.3788 eV,   31.7789 Ry                                         
                                                                                
   TITEL  = PAW_PBE O 08Apr2002                                                 
   LULTRA =        F    use ultrasoft PP ?                                      
   IUNSCR =        0    unscreen: 0-lin 1-nonlin 2-no                           
   RPACOR =     .000    partial core radius                                     
   POMASS =   16.000; ZVAL   =    6.000    mass and valenz                      
   RCORE  =    1.520    outmost cutoff radius                                   
   RWIGS  =    1.550; RWIGS  =     .820    wigner-seitz radius (au A)           
   ENMAX  =  400.000; ENMIN  =  300.000 eV                                      
   ICORE  =        2    local potential                                         
   LCOR   =        T    correct aug charges                                     
   LPAW   =        T    paw PP                                                  
   EAUG   =  605.392                                                            
   DEXC   =     .000                                                            
   RMAX   =    2.264    core radius for proj-oper                               
   RAUG   =    1.300    factor for augmentation sphere                          
   RDEP   =    1.550    radius for radial grids                                 
   QCUT   =   -5.520; QGAM   =   11.041    optimization parameters              
                                                                                
   Description                                                                  
     l     E      TYP  RCUT    TYP  RCUT                                        
     0   .000     23  1.200                                                     
     0  -.700     23  1.200                                                     
     1   .000     23  1.520                                                     
     1   .600     23  1.520                                                     
     2   .000      7  1.500                                                     
  local pseudopotential read in
  atomic valenz-charges read in
  non local Contribution for L=           0  read in
    real space projection operators read in
  non local Contribution for L=           0  read in
    real space projection operators read in
  non local Contribution for L=           1  read in
    real space projection operators read in
  non local Contribution for L=           1  read in
    real space projection operators read in
    PAW grid and wavefunctions read in
 
   number of l-projection  operators is LMAX  =           4
   number of lm-projection operators is LMMAX =           8
 
 PAW_PBE H 15Jun2001                    :
 energy of atom  1       EATOM=  -12.4884
 kinetic energy error for atom=    0.0868 (will be added to EATOM!!)
 PAW_PBE O 08Apr2002                    :
 energy of atom  2       EATOM= -432.3788
 kinetic energy error for atom=    3.3160 (will be added to EATOM!!)
 
 
 POSCAR:  H  O                                   
  positions in cartesian coordinates
  No initial velocities read in
 exchange correlation table for  LEXCH =        8
   RHO(1)=    0.500       N(1)  =     2000
   RHO(2)=  100.500       N(2)  =     4000
 


--------------------------------------------------------------------------------------------------------


 ion  position               nearest neighbor table
   1  0.500  0.595  0.463-   3 0.97
   2  0.500  0.405  0.463-   3 0.97
   3  0.500  0.500  0.537-   1 0.97   2 0.97
 
  LATTYP: Found a simple cubic cell.
 ALAT       =     8.0000000000
  
  Lattice vectors:
  
 A1 = (   8.0000000000,   0.0000000000,   0.0000000000)
 A2 = (   0.0000000000,   8.0000000000,   0.0000000000)
 A3 = (   0.0000000000,   0.0000000000,   8.0000000000)
 Subroutine PRICEL returns:
 Original cell was already a primitive cell.
 

Analysis of symmetry for initial positions (statically):

 Routine SETGRP: Setting up the symmetry group for a 
 simple cubic supercell.


 Subroutine GETGRP returns: Found  4 space group operations
 (whereof  4 operations were pure point group operations)
 out of a pool of 48 trial point group operations.


The static configuration has the point symmetry C_2v.

Analysis of symmetry for dynamics (positions and initial velocities):

 Subroutine DYNSYM returns: Found  4 space group operations
 (whereof  4 operations were pure point group operations)
 out of a pool of  4 trial space group operations
 (whereof  4 operations were pure point group operations)
 and found also     1 'primitive' translations


The dynamic configuration has the point symmetry C_2v.

Analysis of magnetic symmetry:

 Subroutine MAGSYM returns: Found  4 space group operations
 (whereof  4 operations were pure point group operations)
 out of a pool of  4 trial space group operations
 (whereof  4 operations were pure point group operations)
 and found also     1 'primitive' translations


The magnetic configuration has the point symmetry C_2v.
 
 
 KPOINTS: KPOINTS created by Atomic Simulation Env

Automatic generation of k-mesh.
 
 Subroutine IBZKPT returns following result:
 ===========================================
 
 Found      1 irreducible k-points:
 
 Following reciprocal coordinates:
            Coordinates               Weight
  0.000000  0.000000  0.000000      1.000000
 
 Following cartesian coordinates:
            Coordinates               Weight
  0.000000  0.000000  0.000000      1.000000
 


--------------------------------------------------------------------------------------------------------




 Dimension of arrays:
   k-points           NKPTS =      1   k-points in BZ     NKDIM =      1   number of bands    NBANDS=     20
   number of dos      NEDOS =    301   number of ions     NIONS =      3
   non local maximal  LDIM  =      4   non local SUM 2l+1 LMDIM =      8
   total plane-waves  NPLWV =  32768
   max r-space proj   IRMAX =      1   max aug-charges    IRDMAX=   1030
   dimension x,y,z NGX =    32 NGY =   32 NGZ =   32
   dimension x,y,z NGXF=    64 NGYF=   64 NGZF=   64
   support grid    NGXF=    64 NGYF=   64 NGZF=   64
   ions per type =               2   1
 NGX,Y,Z   is equivalent  to a cutoff of   6.65,  6.65,  6.65 a.u.
 NGXF,Y,Z  is equivalent  to a cutoff of  13.30, 13.30, 13.30 a.u.


 I would recommend the setting:
   dimension x,y,z NGX =    31 NGY =   31 NGZ =   31
 SYSTEM =  unknown system                          
 POSCAR =   H  O                                   

 Startparameter for this run:
   NWRITE =      2    write-flag & timer
   PREC   = normal    normal or accurate (medium, high low for compatibility)
   ISTART =      0    job   : 0-new  1-cont  2-samecut
   ICHARG =      2    charge: 1-file 2-atom 10-const
   ISPIN  =      2    spin polarized calculation?
   LNONCOLLINEAR =      F non collinear calculations
   LSORBIT =      F    spin-orbit coupling
   INIWAV =      1    electr: 0-lowe 1-rand  2-diag
   LASPH  =      F    aspherical Exc in radial PAW
   METAGGA=      F    non-selfconsistent MetaGGA calc.

 Electronic Relaxation 1
   ENCUT  =  250.0 eV  18.37 Ry    4.29 a.u.  10.31 10.31 10.31*2*pi/ulx,y,z
   ENINI  =  250.0     initial cutoff
   ENAUG  =  605.4 eV  augmentation charge cutoff
   NELM   =     60;   NELMIN=  2; NELMDL= -5     # of ELM steps 
   EDIFF  = 0.1E-07   stopping-criterion for ELM
   LREAL  =      F    real-space projection
   NLSPLINE    = F    spline interpolate recip. space projectors
   LCOMPAT=      F    compatible to vasp.4.4
   GGA_COMPAT  = T    GGA compatible to vasp.4.4-vasp.4.6
   LMAXPAW     = -100 max onsite density
   LMAXMIX     =    2 max onsite mixed and CHGCAR
   VOSKOWN=      0    Vosko Wilk Nusair interpolation
   ROPT   =    0.00000   0.00000
 Ionic relaxation
   EDIFFG = 0.1E-06   stopping-criterion for IOM
   NSW    =     20    number of steps for IOM
   NBLOCK =      1;   KBLOCK =     20    inner block; outer block 
   IBRION =      2    ionic relax: 0-MD 1-quasi-New 2-CG
   NFREE  =      1    steps in history (QN), initial steepest desc. (CG)
   ISIF   =      2    stress and relaxation
   IWAVPR =     11    prediction:  0-non 1-charg 2-wave 3-comb
   ISYM   =      2    0-nonsym 1-usesym 2-fastsym
   LCORR  =      T    Harris-Foulkes like correction to forces

   POTIM  = 0.5000    time-step for ionic-motion
   TEIN   =    0.0    initial temperature
   TEBEG  =    0.0;   TEEND  =   0.0 temperature during run
   SMASS  =  -3.00    Nose mass-parameter (am)
   estimated Nose-frequenzy (Omega)   =  0.10E-29 period in steps =****** mass=  -0.146E-26a.u.
   SCALEE = 1.0000    scale energy and forces
   NPACO  =    256;   APACO  = 16.0  distance and # of slots for P.C.
   PSTRESS=    0.0 pullay stress

  Mass of Ions in am
   POMASS =   1.00 16.00
  Ionic Valenz
   ZVAL   =   1.00  6.00
  Atomic Wigner-Seitz radii
   RWIGS  =  -1.00 -1.00
  virtual crystal weights 
   VCA    =   1.00  1.00
   NELECT =       8.0000    total number of electrons
   NUPDOWN=      -1.0000    fix difference up-down

 DOS related values:
   EMIN   =  10.00;   EMAX   =-10.00  energy-range for DOS
   EFERMI =   0.00
   ISMEAR =     0;   SIGMA  =   0.01  broadening in eV -4-tet -1-fermi 0-gaus

 Electronic relaxation 2 (details)
   IALGO  =     38    algorithm
   LDIAG  =      T    sub-space diagonalisation (order eigenvalues)
   LSUBROT=      T    optimize rotation matrix (better conditioning)
   TURBO    =      0    0=normal 1=particle mesh
   IRESTART =      0    0=no restart 2=restart with 2 vectors
   NREBOOT  =      0    no. of reboots
   NMIN     =      0    reboot dimension
   EREF     =   0.00    reference energy to select bands
   IMIX   =      4    mixing-type and parameters
     AMIX     =   0.40;   BMIX     =  1.00
     AMIX_MAG =   1.60;   BMIX_MAG =  1.00
     AMIN     =   0.10
     WC   =   100.;   INIMIX=   1;  MIXPRE=   1

 Intra band minimization:
   WEIMIN = 0.0010     energy-eigenvalue tresh-hold
   EBREAK =  0.13E-09  absolut break condition
   DEPER  =   0.30     relativ break condition  

   TIME   =   0.40     timestep for ELM

  volume/ion in A,a.u.               =     170.67      1151.72
  Fermi-wavevector in a.u.,A,eV,Ry     =   0.409275  0.773417  2.279054  0.167506
  Thomas-Fermi vector in A             =   1.364147
 
 Write flags
   LWAVE  =      T    write WAVECAR
   LCHARG =      T    write CHGCAR
   LVTOT  =      F    write LOCPOT, total local potential
   LVHAR  =      F    write LOCPOT, Hartree potential only
   LELF   =      F    write electronic localiz. function (ELF)
   LORBIT =      0    0 simple, 1 ext, 2 COOP (PROOUT)


 Dipole corrections
   LMONO  =      F    monopole corrections only (constant potential shift)
   LDIPOL =      F    correct potential (dipole corrections)
   IDIPOL =      0    1-x, 2-y, 3-z, 4-all directions 
   EPSILON=  1.0000000 bulk dielectric constant

 Exchange correlation treatment:
   GGA     =    --    GGA type
   LEXCH   =     8    internal setting for exchange type
   VOSKOWN=      0    Vosko Wilk Nusair interpolation
   LHFCALC =     F    Hartree Fock is set to
   LHFONE  =     F    Hartree Fock one center treatment
   AEXX    =    0.0000 exact exchange contribution

 Linear response parameters
   LEPSILON=     F    determine dielectric tensor
   LRPA    =     F    only Hartree local field effects (RPA)
   LNABLA  =     F    use nabla operator in PAW spheres
   LVEL    =     F    velocity operator in full k-point grid
   LINTERFAST=   F  fast interpolation
   KINTER  =     0    interpolate to denser k-point grid
   CSHIFT  =0.1000    complex shift for real part using Kramers Kronig
   OMEGAMAX=  -1.0    maximum frequency
   RTIME   =    0.100 relaxation time in fs

 Orbital magnetization related:
   ORBITALMAG=     F  switch on orbital magnetization
   LCHIMAG   =     F  perturbation theory with respect to B field
   DQ        =  0.001000  dq finite difference perturbation B field



--------------------------------------------------------------------------------------------------------


 conjugate gradient relaxation of ions
 charge density and potential will be updated during run
 spin polarized calculation
 Variant of blocked Davidson
 Davidson routine will perform the subspace rotation
 perform sub-space diagonalisation
    after iterative eigenvector-optimisation
 modified Broyden-mixing scheme, WC =      100.0
 initial mixing is a Kerker type mixing with AMIX =  0.4000 and BMIX =      1.0000
 Hartree-type preconditioning will be used
 using additional bands           16
 reciprocal scheme for non local part
 calculate Harris-corrections to forces 
   (improved forces if not selfconsistent)
 use gradient corrections 
 use of overlap-Matrix (Vanderbilt PP)
 Gauss-broadening in eV      SIGMA  =   0.01


--------------------------------------------------------------------------------------------------------


  energy-cutoff  :      250.00
  volume of cell :      512.00
      direct lattice vectors                 reciprocal lattice vectors
     8.000000000  0.000000000  0.000000000     0.125000000  0.000000000  0.000000000
     0.000000000  8.000000000  0.000000000     0.000000000  0.125000000  0.000000000
     0.000000000  0.000000000  8.000000000     0.000000000  0.000000000  0.125000000

  length of vectors
     8.000000000  8.000000000  8.000000000     0.125000000  0.125000000  0.125000000


 
 k-points in units of 2pi/SCALE and weight: KPOINTS created by Atomic Simulation Env
   0.00000000  0.00000000  0.00000000       1.000
 
 k-points in reciprocal lattice and weights: KPOINTS created by Atomic Simulation Env
   0.00000000  0.00000000  0.00000000       1.000
 
 position of ions in fractional coordinates (direct lattice) 
   0.50000000  0.59540487  0.46273069
   0.50000000  0.40459513  0.46273069
   0.50000000  0.50000000  0.53726931
 
 position of ions in cartesian coordinates  (Angst):
   4.00000000  4.76323900  3.70184550
   4.00000000  3.23676100  3.70184550
   4.00000000  4.00000000  4.29815450
 


--------------------------------------------------------------------------------------------------------


 k-point  1 :  0.00000.00000.0000  plane waves:    4625

 maximum and minimum number of plane-waves per node :      4625     4625

 maximum number of plane-waves:      4625
 maximum index in each direction: 
   IXMAX=   10   IYMAX=   10   IZMAX=   10
   IXMIN=  -10   IYMIN=  -10   IZMIN=  -10

 WARNING: aliasing errors must be expected set NGX to  42 to avoid them
 WARNING: aliasing errors must be expected set NGY to  42 to avoid them
 WARNING: aliasing errors must be expected set NGZ to  42 to avoid them
 aliasing errors are usually negligible using standard VASP settings
 and one can safely disregard these warnings

 serial   3D FFT for wavefunctions
 parallel 3D FFT for charge:
    minimum data exchange during FFTs selected (reduces bandwidth)


 total amount of memory used by VASP on root node    67157. kBytes
========================================================================

   base      :      30000. kBytes
   nonl-proj :        814. kBytes
   fftplans  :       9204. kBytes
   grid      :      24150. kBytes
   one-center:         18. kBytes
   wavefun   :       2971. kBytes
 
 Broyden mixing: mesh for mixing (old mesh)
   NGX = 21   NGY = 21   NGZ = 21
  (NGX  = 64   NGY  = 64   NGZ  = 64)
  gives a total of   9261 points

 initial charge density was supplied:
 charge density of overlapping atoms calculated
 number of electron       8.0000000 magnetization       3.0000000
 keeping initial charge density in first step


--------------------------------------------------------------------------------------------------------


 Maximum index for augmentation-charges          812 (set IRDMAX)


--------------------------------------------------------------------------------------------------------


 First call to EWALD:  gamma=   0.222
 Maximum number of real-space cells 3x 3x 3
 Maximum number of reciprocal cells 3x 3x 3

    FEWALD:  cpu time    0.00: real time    0.00


----------------------------------------- Iteration    1(   1)  ---------------------------------------


    POTLOK:  cpu time    0.96: real time    0.96
    SETDIJ:  cpu time    0.03: real time    0.03
     EDDAV:  cpu time    0.99: real time    0.99
       DOS:  cpu time    0.00: real time    0.00
    --------------------------------------------
      LOOP:  cpu time    1.98: real time    1.99

 eigenvalue-minimisations  :    96
 total energy-change (2. order) : 0.4128863E+02  (-0.1571646E+03)
 number of electron       8.0000000 magnetization       3.0000000
 augmentation part        8.0000000 magnetization       3.0000000

 Free energy of the ion-electron system (eV)
  ---------------------------------------------------
  alpha Z        PSCENC =         0.43793512
  Ewald energy   TEWEN  =        25.21827333
  -1/2 Hartree   DENC   =      -386.09297846
  -exchange  EXHF       =         0.00000000
  -V(xc)+E(xc)   XCENC  =        33.05791009
  PAW double counting   =       246.88637530     -248.74825379
  entropy T*S    EENTRO =        -0.00000028
  eigenvalues    EBANDS =       -83.33669747
  atomic energy  EATOM  =       453.86606646
  ---------------------------------------------------
  free energy    TOTEN  =        41.28863030 eV

  energy without entropy =       41.28863058  energy(sigma->0) =       41.28863044


--------------------------------------------------------------------------------------------------------




----------------------------------------- Iteration    1(   2)  ---------------------------------------


     EDDAV:  cpu time    1.14: real time    1.14
       DOS:  cpu time    0.00: real time    0.00
    --------------------------------------------
      LOOP:  cpu time    1.14: real time    1.18

 eigenvalue-minimisations  :   116
 total energy-change (2. order) :-0.5064708E+02  (-0.4970323E+02)
 number of electron       8.0000000 magnetization       3.0000000
 augmentation part        8.0000000 magnetization       3.0000000

 Free energy of the ion-electron system (eV)
  ---------------------------------------------------
  alpha Z        PSCENC =         0.43793512
  Ewald energy   TEWEN  =        25.21827333
  -1/2 Hartree   DENC   =      -386.09297846
  -exchange  EXHF       =         0.00000000
  -V(xc)+E(xc)   XCENC  =        33.05791009
  PAW double counting   =       246.88637530     -248.74825379
  entropy T*S    EENTRO =         0.00000000
  eigenvalues    EBANDS =      -133.98377354
  atomic energy  EATOM  =       453.86606646
  ---------------------------------------------------
  free energy    TOTEN  =        -9.35844548 eV

  energy without entropy =       -9.35844548  energy(sigma->0) =       -9.35844548


--------------------------------------------------------------------------------------------------------




----------------------------------------- Iteration    1(   3)  ---------------------------------------


     EDDAV:  cpu time    1.02: real time    1.02
       DOS:  cpu time    0.00: real time    0.00
    --------------------------------------------
      LOOP:  cpu time    1.02: real time    1.03

 eigenvalue-minimisations  :   100
 total energy-change (2. order) :-0.3029238E+01  (-0.3024294E+01)
 number of electron       8.0000000 magnetization       3.0000000
 augmentation part        8.0000000 magnetization       3.0000000

 Free energy of the ion-electron system (eV)
  ---------------------------------------------------
  alpha Z        PSCENC =         0.43793512
  Ewald energy   TEWEN  =        25.21827333
  -1/2 Hartree   DENC   =      -386.09297846
  -exchange  EXHF       =         0.00000000
  -V(xc)+E(xc)   XCENC  =        33.05791009
  PAW double counting   =       246.88637530     -248.74825379
  entropy T*S    EENTRO =         0.00000000
  eigenvalues    EBANDS =      -137.01301153
  atomic energy  EATOM  =       453.86606646
  ---------------------------------------------------
  free energy    TOTEN  =       -12.38768348 eV

  energy without entropy =      -12.38768348  energy(sigma->0) =      -12.38768348


--------------------------------------------------------------------------------------------------------




----------------------------------------- Iteration    1(   4)  ---------------------------------------


     EDDAV:  cpu time    1.12: real time    1.12
       DOS:  cpu time    0.00: real time    0.00
    --------------------------------------------
      LOOP:  cpu time    1.12: real time    1.13

 eigenvalue-minimisations  :   112
 total energy-change (2. order) :-0.1637747E-01  (-0.1636746E-01)
 number of electron       8.0000000 magnetization       3.0000000
 augmentation part        8.0000000 magnetization       3.0000000

 Free energy of the ion-electron system (eV)
  ---------------------------------------------------
  alpha Z        PSCENC =         0.43793512
  Ewald energy   TEWEN  =        25.21827333
  -1/2 Hartree   DENC   =      -386.09297846
  -exchange  EXHF       =         0.00000000
  -V(xc)+E(xc)   XCENC  =        33.05791009
  PAW double counting   =       246.88637530     -248.74825379
  entropy T*S    EENTRO =         0.00000000
  eigenvalues    EBANDS =      -137.02938901
  atomic energy  EATOM  =       453.86606646
  ---------------------------------------------------
  free energy    TOTEN  =       -12.40406095 eV

  energy without entropy =      -12.40406095  energy(sigma->0) =      -12.40406095


--------------------------------------------------------------------------------------------------------




----------------------------------------- Iteration    1(   5)  ---------------------------------------


     EDDAV:  cpu time    0.92: real time    0.92
       DOS:  cpu time    0.00: real time    0.00
    CHARGE:  cpu time    0.10: real time    0.10
    MIXING:  cpu time    0.02: real time    0.02
    --------------------------------------------
      LOOP:  cpu time    1.04: real time    1.09

 eigenvalue-minimisations  :    88
 total energy-change (2. order) :-0.1347141E-03  (-0.1347138E-03)
 number of electron       7.9999887 magnetization       1.1687355
 augmentation part        0.7193947 magnetization       1.1459134

 Broyden mixing:
  rms(total) = 0.12667E+01    rms(broyden)= 0.12613E+01
  rms(prec ) = 0.14852E+01
  weight for this iteration     100.00

 Free energy of the ion-electron system (eV)
  ---------------------------------------------------
  alpha Z        PSCENC =         0.43793512
  Ewald energy   TEWEN  =        25.21827333
  -1/2 Hartree   DENC   =      -386.09297846
  -exchange  EXHF       =         0.00000000
  -V(xc)+E(xc)   XCENC  =        33.05791009
  PAW double counting   =       246.88637530     -248.74825379
  entropy T*S    EENTRO =         0.00000000
  eigenvalues    EBANDS =      -137.02952372
  atomic energy  EATOM  =       453.86606646
  ---------------------------------------------------
  free energy    TOTEN  =       -12.40419567 eV

  energy without entropy =      -12.40419567  energy(sigma->0) =      -12.40419567


--------------------------------------------------------------------------------------------------------




----------------------------------------- Iteration    1(   6)  ---------------------------------------


    POTLOK:  cpu time    0.97: real time    0.97
    SETDIJ:  cpu time    0.03: real time    0.03
     EDDAV:  cpu time    0.95: real time    0.95
       DOS:  cpu time    0.00: real time    0.00
    CHARGE:  cpu time    0.09: real time    0.09
    MIXING:  cpu time    0.02: real time    0.02
    --------------------------------------------
      LOOP:  cpu time    2.07: real time    2.09

 eigenvalue-minimisations  :    92
 total energy-change (2. order) : 0.6575134E+01  (-0.1421714E+01)
 number of electron       7.9999905 magnetization       0.5037292
 augmentation part        0.6445533 magnetization       0.4552904

 Broyden mixing:
  rms(total) = 0.48051E+00    rms(broyden)= 0.47790E+00
  rms(prec ) = 0.58348E+00
  weight for this iteration     100.00

 eigenvalues of (default mixing * dielectric matrix)
  average eigenvalue GAMMA=   0.8297
  0.8297

 Free energy of the ion-electron system (eV)
  ---------------------------------------------------
  alpha Z        PSCENC =         0.43793512
  Ewald energy   TEWEN  =        25.21827333
  -1/2 Hartree   DENC   =      -405.69887786
  -exchange  EXHF       =         0.00000000
  -V(xc)+E(xc)   XCENC  =        40.65226748
  PAW double counting   =       308.13629339     -309.97816529
  entropy T*S    EENTRO =         0.00000000
  eigenvalues    EBANDS =      -118.46285420
  atomic energy  EATOM  =       453.86606646
  ---------------------------------------------------
  free energy    TOTEN  =        -5.82906157 eV

  energy without entropy =       -5.82906157  energy(sigma->0) =       -5.82906157


--------------------------------------------------------------------------------------------------------




----------------------------------------- Iteration    1(   7)  ---------------------------------------


    POTLOK:  cpu time    0.97: real time    0.97
    SETDIJ:  cpu time    0.03: real time    0.03
     EDDAV:  cpu time    0.89: real time    0.89
       DOS:  cpu time    0.00: real time    0.00
    CHARGE:  cpu time    0.09: real time    0.09
    MIXING:  cpu time    0.02: real time    0.02
    --------------------------------------------
      LOOP:  cpu time    2.01: real time    2.03

 eigenvalue-minimisations  :    84
 total energy-change (2. order) :-0.6713953E+01  (-0.3491671E+00)
 number of electron       7.9999911 magnetization       0.1585383
 augmentation part        0.6157884 magnetization       0.1371806

 Broyden mixing:
  rms(total) = 0.27317E+00    rms(broyden)= 0.27309E+00
  rms(prec ) = 0.33362E+00
  weight for this iteration     100.00

 eigenvalues of (default mixing * dielectric matrix)
  average eigenvalue GAMMA=   0.9290
  0.9290  0.9290

 Free energy of the ion-electron system (eV)
  ---------------------------------------------------
  alpha Z        PSCENC =         0.43793512
  Ewald energy   TEWEN  =        25.21827333
  -1/2 Hartree   DENC   =      -411.67857145
  -exchange  EXHF       =         0.00000000
  -V(xc)+E(xc)   XCENC  =        35.39330652
  PAW double counting   =       330.74700585     -332.48249249
  entropy T*S    EENTRO =         0.00000000
  eigenvalues    EBANDS =      -114.04453756
  atomic energy  EATOM  =       453.86606646
  ---------------------------------------------------
  free energy    TOTEN  =       -12.54301422 eV

  energy without entropy =      -12.54301422  energy(sigma->0) =      -12.54301422


--------------------------------------------------------------------------------------------------------




----------------------------------------- Iteration    1(   8)  ---------------------------------------


    POTLOK:  cpu time    0.97: real time    0.97
    SETDIJ:  cpu time    0.03: real time    0.03
     EDDAV:  cpu time    0.99: real time    0.99
       DOS:  cpu time    0.00: real time    0.00
    CHARGE:  cpu time    0.09: real time    0.09
    MIXING:  cpu time    0.02: real time    0.02
    --------------------------------------------
      LOOP:  cpu time    2.11: real time    2.16

 eigenvalue-minimisations  :    96
 total energy-change (2. order) :-0.1701105E+01  (-0.3582478E-01)
 number of electron       7.9999910 magnetization      -0.0636911
 augmentation part        0.6172886 magnetization      -0.0710427

 Broyden mixing:
  rms(total) = 0.15128E+00    rms(broyden)= 0.15124E+00
  rms(prec ) = 0.18879E+00
  weight for this iteration     100.00

 eigenvalues of (default mixing * dielectric matrix)
  average eigenvalue GAMMA=   1.1890
  1.8985  0.9621  0.7063

 Free energy of the ion-electron system (eV)
  ---------------------------------------------------
  alpha Z        PSCENC =         0.43793512
  Ewald energy   TEWEN  =        25.21827333
  -1/2 Hartree   DENC   =      -412.53530157
  -exchange  EXHF       =         0.00000000
  -V(xc)+E(xc)   XCENC  =        33.84173066
  PAW double counting   =       340.80470258     -342.42667793
  entropy T*S    EENTRO =         0.00000000
  eigenvalues    EBANDS =      -113.45084761
  atomic energy  EATOM  =       453.86606646
  ---------------------------------------------------
  free energy    TOTEN  =       -14.24411896 eV

  energy without entropy =      -14.24411896  energy(sigma->0) =      -14.24411896


--------------------------------------------------------------------------------------------------------




----------------------------------------- Iteration    1(   9)  ---------------------------------------


    POTLOK:  cpu time    0.97: real time    0.98
    SETDIJ:  cpu time    0.03: real time    0.03
     EDDAV:  cpu time    0.92: real time    0.92
       DOS:  cpu time    0.00: real time    0.00
    CHARGE:  cpu time    0.09: real time    0.09
    MIXING:  cpu time    0.02: real time    0.02
    --------------------------------------------
      LOOP:  cpu time    2.05: real time    2.06

 eigenvalue-minimisations  :    88
 total energy-change (2. order) :-0.8871158E-01  (-0.1265785E-01)
 number of electron       7.9999909 magnetization      -0.0688179
 augmentation part        0.6222613 magnetization      -0.0672622

 Broyden mixing:
  rms(total) = 0.40959E-01    rms(broyden)= 0.40905E-01
  rms(prec ) = 0.71028E-01
  weight for this iteration     100.00

 eigenvalues of (default mixing * dielectric matrix)
  average eigenvalue GAMMA=   1.1898
  2.1742  0.9574  0.9574  0.6704

 Free energy of the ion-electron system (eV)
  ---------------------------------------------------
  alpha Z        PSCENC =         0.43793512
  Ewald energy   TEWEN  =        25.21827333
  -1/2 Hartree   DENC   =      -413.89138372
  -exchange  EXHF       =         0.00000000
  -V(xc)+E(xc)   XCENC  =        33.84741604
  PAW double counting   =       351.21506464     -352.73945158
  entropy T*S    EENTRO =         0.00000000
  eigenvalues    EBANDS =      -112.28675082
  atomic energy  EATOM  =       453.86606646
  ---------------------------------------------------
  free energy    TOTEN  =       -14.33283054 eV

  energy without entropy =      -14.33283054  energy(sigma->0) =      -14.33283054


--------------------------------------------------------------------------------------------------------




----------------------------------------- Iteration    1(  10)  ---------------------------------------


    POTLOK:  cpu time    0.97: real time    0.97
    SETDIJ:  cpu time    0.03: real time    0.03
     EDDAV:  cpu time    1.04: real time    1.04
       DOS:  cpu time    0.00: real time    0.00
    CHARGE:  cpu time    0.09: real time    0.09
    MIXING:  cpu time    0.02: real time    0.02
    --------------------------------------------
      LOOP:  cpu time    2.17: real time    2.22

 eigenvalue-minimisations  :   104
 total energy-change (2. order) :-0.2594038E-01  (-0.1151696E-02)
 number of electron       7.9999910 magnetization       0.0101185
 augmentation part        0.6186210 magnetization       0.0126815

 Broyden mixing:
  rms(total) = 0.17391E-01    rms(broyden)= 0.17349E-01
  rms(prec ) = 0.41232E-01
  weight for this iteration     100.00

 eigenvalues of (default mixing * dielectric matrix)
  average eigenvalue GAMMA=   1.2261
  2.2973  1.1451  1.1451  0.8589  0.6841

 Free energy of the ion-electron system (eV)
  ---------------------------------------------------
  alpha Z        PSCENC =         0.43793512
  Ewald energy   TEWEN  =        25.21827333
  -1/2 Hartree   DENC   =      -415.12538105
  -exchange  EXHF       =         0.00000000
  -V(xc)+E(xc)   XCENC  =        33.88626029
  PAW double counting   =       354.56824721     -356.08089784
  entropy T*S    EENTRO =         0.00000000
  eigenvalues    EBANDS =      -111.12927442
  atomic energy  EATOM  =       453.86606646
  ---------------------------------------------------
  free energy    TOTEN  =       -14.35877091 eV

  energy without entropy =      -14.35877091  energy(sigma->0) =      -14.35877091


--------------------------------------------------------------------------------------------------------




----------------------------------------- Iteration    1(  11)  ---------------------------------------


    POTLOK:  cpu time    0.97: real time    0.97
    SETDIJ:  cpu time    0.03: real time    0.03
     EDDAV:  cpu time    0.98: real time    0.98
       DOS:  cpu time    0.00: real time    0.00
    CHARGE:  cpu time    0.09: real time    0.09
    MIXING:  cpu time    0.02: real time    0.02
    --------------------------------------------
      LOOP:  cpu time    2.10: real time    2.11

 eigenvalue-minimisations  :    96
 total energy-change (2. order) :-0.6257650E-01  (-0.2223332E-02)
 number of electron       7.9999911 magnetization       0.0222170
 augmentation part        0.6133153 magnetization       0.0219740

 Broyden mixing:
  rms(total) = 0.19462E-01    rms(broyden)= 0.19446E-01
  rms(prec ) = 0.32582E-01
  weight for this iteration     100.00

 eigenvalues of (default mixing * dielectric matrix)
  average eigenvalue GAMMA=   1.1785
  2.4255  1.5309  0.9812  0.8130  0.7126  0.6075

 Free energy of the ion-electron system (eV)
  ---------------------------------------------------
  alpha Z        PSCENC =         0.43793512
  Ewald energy   TEWEN  =        25.21827333
  -1/2 Hartree   DENC   =      -416.54239920
  -exchange  EXHF       =         0.00000000
  -V(xc)+E(xc)   XCENC  =        33.90118874
  PAW double counting   =       355.85254362     -357.35887352
  entropy T*S    EENTRO =         0.00000000
  eigenvalues    EBANDS =      -109.79608196
  atomic energy  EATOM  =       453.86606646
  ---------------------------------------------------
  free energy    TOTEN  =       -14.42134742 eV

  energy without entropy =      -14.42134742  energy(sigma->0) =      -14.42134742


--------------------------------------------------------------------------------------------------------




----------------------------------------- Iteration    1(  12)  ---------------------------------------


    POTLOK:  cpu time    1.03: real time    1.04
    SETDIJ:  cpu time    0.04: real time    0.04
     EDDAV:  cpu time    1.15: real time    1.15
       DOS:  cpu time    0.00: real time    0.00
    CHARGE:  cpu time    0.11: real time    0.11
    MIXING:  cpu time    0.03: real time    0.03
    --------------------------------------------
      LOOP:  cpu time    2.35: real time    2.38

 eigenvalue-minimisations  :   104
 total energy-change (2. order) : 0.2838398E-02  (-0.2521506E-03)
 number of electron       7.9999911 magnetization       0.0103340
 augmentation part        0.6145739 magnetization       0.0095095

 Broyden mixing:
  rms(total) = 0.10385E-01    rms(broyden)= 0.10382E-01
  rms(prec ) = 0.19733E-01
  weight for this iteration     100.00

 eigenvalues of (default mixing * dielectric matrix)
  average eigenvalue GAMMA=   1.3072
  2.4159  1.9052  1.2720  1.2720  0.9173  0.6964  0.6714

 Free energy of the ion-electron system (eV)
  ---------------------------------------------------
  alpha Z        PSCENC =         0.43793512
  Ewald energy   TEWEN  =        25.21827333
  -1/2 Hartree   DENC   =      -416.36624886
  -exchange  EXHF       =         0.00000000
  -V(xc)+E(xc)   XCENC  =        33.88708318
  PAW double counting   =       354.74366429     -356.24676694
  entropy T*S    EENTRO =         0.00000000
  eigenvalues    EBANDS =      -109.95851560
  atomic energy  EATOM  =       453.86606646
  ---------------------------------------------------
  free energy    TOTEN  =       -14.41850902 eV

  energy without entropy =      -14.41850902  energy(sigma->0) =      -14.41850902


--------------------------------------------------------------------------------------------------------




----------------------------------------- Iteration    1(  13)  ---------------------------------------


    POTLOK:  cpu time    1.06: real time    1.06
    SETDIJ:  cpu time    0.04: real time    0.04
     EDDAV:  cpu time    1.01: real time    1.01
       DOS:  cpu time    0.00: real time    0.00
    CHARGE:  cpu time    0.11: real time    0.11
    MIXING:  cpu time    0.03: real time    0.03
    --------------------------------------------
      LOOP:  cpu time    2.25: real time    2.26

 eigenvalue-minimisations  :    88
 total energy-change (2. order) :-0.1005497E-01  (-0.6724371E-03)
 number of electron       7.9999910 magnetization       0.0063448
 augmentation part        0.6174764 magnetization       0.0058021

 Broyden mixing:
  rms(total) = 0.12433E-01    rms(broyden)= 0.12424E-01
  rms(prec ) = 0.18494E-01
  weight for this iteration     100.00

 eigenvalues of (default mixing * dielectric matrix)
  average eigenvalue GAMMA=   1.2917
  2.4915  2.4915  1.3063  1.0859  0.7948  0.7948  0.6841  0.6841

 Free energy of the ion-electron system (eV)
  ---------------------------------------------------
  alpha Z        PSCENC =         0.43793512
  Ewald energy   TEWEN  =        25.21827333
  -1/2 Hartree   DENC   =      -415.93982309
  -exchange  EXHF       =         0.00000000
  -V(xc)+E(xc)   XCENC  =        33.84754763
  PAW double counting   =       352.71995955     -354.21929764
  entropy T*S    EENTRO =         0.00000000
  eigenvalues    EBANDS =      -110.35922535
  atomic energy  EATOM  =       453.86606646
  ---------------------------------------------------
  free energy    TOTEN  =       -14.42856399 eV

  energy without entropy =      -14.42856399  energy(sigma->0) =      -14.42856399


--------------------------------------------------------------------------------------------------------




----------------------------------------- Iteration    1(  14)  ---------------------------------------


    POTLOK:  cpu time    1.06: real time    1.07
    SETDIJ:  cpu time    0.04: real time    0.04
     EDDAV:  cpu time    1.29: real time    1.29
       DOS:  cpu time    0.00: real time    0.00
    CHARGE:  cpu time    0.11: real time    0.11
    MIXING:  cpu time    0.03: real time    0.03
    --------------------------------------------
      LOOP:  cpu time    2.53: real time    2.55

 eigenvalue-minimisations  :   120
 total energy-change (2. order) :-0.3256810E-02  (-0.1694228E-03)
 number of electron       7.9999910 magnetization      -0.0017810
 augmentation part        0.6158395 magnetization      -0.0020394

 Broyden mixing:
  rms(total) = 0.32998E-02    rms(broyden)= 0.32931E-02
  rms(prec ) = 0.58960E-02
  weight for this iteration     100.00

 eigenvalues of (default mixing * dielectric matrix)
  average eigenvalue GAMMA=   1.4079
  3.0139  2.7764  1.3973  1.2273  1.0614  1.0614  0.7908  0.7030  0.6393

 Free energy of the ion-electron system (eV)
  ---------------------------------------------------
  alpha Z        PSCENC =         0.43793512
  Ewald energy   TEWEN  =        25.21827333
  -1/2 Hartree   DENC   =      -416.24969216
  -exchange  EXHF       =         0.00000000
  -V(xc)+E(xc)   XCENC  =        33.86129156
  PAW double counting   =       353.18211405     -354.68388540
  entropy T*S    EENTRO =         0.00000000
  eigenvalues    EBANDS =      -110.06392375
  atomic energy  EATOM  =       453.86606646
  ---------------------------------------------------
  free energy    TOTEN  =       -14.43182080 eV

  energy without entropy =      -14.43182080  energy(sigma->0) =      -14.43182080


--------------------------------------------------------------------------------------------------------




----------------------------------------- Iteration    1(  15)  ---------------------------------------


    POTLOK:  cpu time    1.06: real time    1.06
    SETDIJ:  cpu time    0.03: real time    0.04
     EDDAV:  cpu time    1.02: real time    1.02
       DOS:  cpu time    0.00: real time    0.00
    CHARGE:  cpu time    0.11: real time    0.11
    MIXING:  cpu time    0.03: real time    0.03
    --------------------------------------------
      LOOP:  cpu time    2.26: real time    2.27

 eigenvalue-minimisations  :    88
 total energy-change (2. order) :-0.2759498E-02  (-0.7302988E-04)
 number of electron       7.9999910 magnetization      -0.0027379
 augmentation part        0.6150173 magnetization      -0.0026515

 Broyden mixing:
  rms(total) = 0.38361E-02    rms(broyden)= 0.38325E-02
  rms(prec ) = 0.56946E-02
  weight for this iteration     100.00

 eigenvalues of (default mixing * dielectric matrix)
  average eigenvalue GAMMA=   1.4503
  4.3861  2.5013  1.5766  1.1573  0.9468  0.9468  0.9236  0.7600  0.6278  0.6768

 Free energy of the ion-electron system (eV)
  ---------------------------------------------------
  alpha Z        PSCENC =         0.43793512
  Ewald energy   TEWEN  =        25.21827333
  -1/2 Hartree   DENC   =      -416.39372457
  -exchange  EXHF       =         0.00000000
  -V(xc)+E(xc)   XCENC  =        33.86593549
  PAW double counting   =       353.52577498     -355.02897908
  entropy T*S    EENTRO =         0.00000000
  eigenvalues    EBANDS =      -109.92586203
  atomic energy  EATOM  =       453.86606646
  ---------------------------------------------------
  free energy    TOTEN  =       -14.43458030 eV

  energy without entropy =      -14.43458030  energy(sigma->0) =      -14.43458030


--------------------------------------------------------------------------------------------------------




----------------------------------------- Iteration    1(  16)  ---------------------------------------


    POTLOK:  cpu time    1.06: real time    1.06
    SETDIJ:  cpu time    0.04: real time    0.04
     EDDAV:  cpu time    1.14: real time    1.14
       DOS:  cpu time    0.00: real time    0.00
    CHARGE:  cpu time    0.11: real time    0.11
    MIXING:  cpu time    0.04: real time    0.04
    --------------------------------------------
      LOOP:  cpu time    2.39: real time    2.40

 eigenvalue-minimisations  :   104
 total energy-change (2. order) :-0.2172983E-03  (-0.6992197E-05)
 number of electron       7.9999910 magnetization      -0.0013849
 augmentation part        0.6152598 magnetization      -0.0012547

 Broyden mixing:
  rms(total) = 0.18437E-02    rms(broyden)= 0.18435E-02
  rms(prec ) = 0.30453E-02
  weight for this iteration     100.00

 eigenvalues of (default mixing * dielectric matrix)
  average eigenvalue GAMMA=   1.4996
  4.7622  2.3627  2.0626  1.3741  0.9830  0.9830  1.0487  0.8971  0.7226  0.6716
  0.6286

 Free energy of the ion-electron system (eV)
  ---------------------------------------------------
  alpha Z        PSCENC =         0.43793512
  Ewald energy   TEWEN  =        25.21827333
  -1/2 Hartree   DENC   =      -416.34621913
  -exchange  EXHF       =         0.00000000
  -V(xc)+E(xc)   XCENC  =        33.86315269
  PAW double counting   =       353.55792514     -355.06059309
  entropy T*S    EENTRO =         0.00000000
  eigenvalues    EBANDS =      -109.97133812
  atomic energy  EATOM  =       453.86606646
  ---------------------------------------------------
  free energy    TOTEN  =       -14.43479760 eV

  energy without entropy =      -14.43479760  energy(sigma->0) =      -14.43479760


--------------------------------------------------------------------------------------------------------




----------------------------------------- Iteration    1(  17)  ---------------------------------------


    POTLOK:  cpu time    1.06: real time    1.06
    SETDIJ:  cpu time    0.03: real time    0.04
     EDDAV:  cpu time    0.94: real time    0.94
       DOS:  cpu time    0.00: real time    0.00
    CHARGE:  cpu time    0.11: real time    0.11
    MIXING:  cpu time    0.04: real time    0.04
    --------------------------------------------
      LOOP:  cpu time    2.18: real time    2.19

 eigenvalue-minimisations  :    80
 total energy-change (2. order) :-0.8737120E-03  (-0.1147004E-04)
 number of electron       7.9999910 magnetization      -0.0001290
 augmentation part        0.6155061 magnetization      -0.0000734

 Broyden mixing:
  rms(total) = 0.53007E-03    rms(broyden)= 0.52869E-03
  rms(prec ) = 0.81068E-03
  weight for this iteration     100.00

 eigenvalues of (default mixing * dielectric matrix)
  average eigenvalue GAMMA=   1.6420
  5.6168  3.2000  2.4753  1.5382  1.0110  1.0110  1.1364  0.9180  0.8057  0.7014
  0.6629  0.6275

 Free energy of the ion-electron system (eV)
  ---------------------------------------------------
  alpha Z        PSCENC =         0.43793512
  Ewald energy   TEWEN  =        25.21827333
  -1/2 Hartree   DENC   =      -416.28230160
  -exchange  EXHF       =         0.00000000
  -V(xc)+E(xc)   XCENC  =        33.85927357
  PAW double counting   =       353.58703958     -355.08958494
  entropy T*S    EENTRO =         0.00000000
  eigenvalues    EBANDS =      -110.03237282
  atomic energy  EATOM  =       453.86606646
  ---------------------------------------------------
  free energy    TOTEN  =       -14.43567131 eV

  energy without entropy =      -14.43567131  energy(sigma->0) =      -14.43567131


--------------------------------------------------------------------------------------------------------




----------------------------------------- Iteration    1(  18)  ---------------------------------------


    POTLOK:  cpu time    1.06: real time    1.06
    SETDIJ:  cpu time    0.03: real time    0.03
     EDDAV:  cpu time    1.07: real time    1.07
       DOS:  cpu time    0.00: real time    0.00
    CHARGE:  cpu time    0.11: real time    0.11
    MIXING:  cpu time    0.04: real time    0.04
    --------------------------------------------
      LOOP:  cpu time    2.32: real time    2.33

 eigenvalue-minimisations  :    96
 total energy-change (2. order) :-0.2228457E-03  (-0.1526919E-05)
 number of electron       7.9999910 magnetization       0.0001738
 augmentation part        0.6155267 magnetization       0.0001768

 Broyden mixing:
  rms(total) = 0.23224E-03    rms(broyden)= 0.23138E-03
  rms(prec ) = 0.43661E-03
  weight for this iteration     100.00

 eigenvalues of (default mixing * dielectric matrix)
  average eigenvalue GAMMA=   1.6339
  5.9646  3.4571  2.4151  1.5644  1.2211  0.9993  0.9993  0.9529  0.9529  0.7472
  0.6895  0.6530  0.6238

 Free energy of the ion-electron system (eV)
  ---------------------------------------------------
  alpha Z        PSCENC =         0.43793512
  Ewald energy   TEWEN  =        25.21827333
  -1/2 Hartree   DENC   =      -416.26568356
  -exchange  EXHF       =         0.00000000
  -V(xc)+E(xc)   XCENC  =        33.85822132
  PAW double counting   =       353.54288942     -355.04561313
  entropy T*S    EENTRO =         0.00000000
  eigenvalues    EBANDS =      -110.04798311
  atomic energy  EATOM  =       453.86606646
  ---------------------------------------------------
  free energy    TOTEN  =       -14.43589416 eV

  energy without entropy =      -14.43589416  energy(sigma->0) =      -14.43589416


--------------------------------------------------------------------------------------------------------




----------------------------------------- Iteration    1(  19)  ---------------------------------------


    POTLOK:  cpu time    1.06: real time    1.06
    SETDIJ:  cpu time    0.03: real time    0.04
     EDDAV:  cpu time    1.17: real time    1.17
       DOS:  cpu time    0.00: real time    0.00
    CHARGE:  cpu time    0.11: real time    0.11
    MIXING:  cpu time    0.04: real time    0.04
    --------------------------------------------
      LOOP:  cpu time    2.42: real time    2.47

 eigenvalue-minimisations  :   108
 total energy-change (2. order) :-0.7313453E-04  (-0.2803706E-06)
 number of electron       7.9999910 magnetization       0.0001784
 augmentation part        0.6155277 magnetization       0.0001706

 Broyden mixing:
  rms(total) = 0.13582E-03    rms(broyden)= 0.13554E-03
  rms(prec ) = 0.25568E-03
  weight for this iteration     100.00

 eigenvalues of (default mixing * dielectric matrix)
  average eigenvalue GAMMA=   1.6627
  6.1544  3.6007  2.3903  1.9628  1.4930  1.0171  1.0171  1.1269  0.9443  0.8850
  0.7346  0.6789  0.6485  0.6240

 Free energy of the ion-electron system (eV)
  ---------------------------------------------------
  alpha Z        PSCENC =         0.43793512
  Ewald energy   TEWEN  =        25.21827333
  -1/2 Hartree   DENC   =      -416.25970818
  -exchange  EXHF       =         0.00000000
  -V(xc)+E(xc)   XCENC  =        33.85788517
  PAW double counting   =       353.51640825     -355.01905470
  entropy T*S    EENTRO =         0.00000000
  eigenvalues    EBANDS =      -110.05377274
  atomic energy  EATOM  =       453.86606646
  ---------------------------------------------------
  free energy    TOTEN  =       -14.43596729 eV

  energy without entropy =      -14.43596729  energy(sigma->0) =      -14.43596729


--------------------------------------------------------------------------------------------------------




----------------------------------------- Iteration    1(  20)  ---------------------------------------


    POTLOK:  cpu time    1.06: real time    1.06
    SETDIJ:  cpu time    0.03: real time    0.04
     EDDAV:  cpu time    1.21: real time    1.21
       DOS:  cpu time    0.00: real time    0.00
    CHARGE:  cpu time    0.11: real time    0.11
    MIXING:  cpu time    0.05: real time    0.05
    --------------------------------------------
      LOOP:  cpu time    2.46: real time    2.47

 eigenvalue-minimisations  :   112
 total energy-change (2. order) :-0.3885625E-04  (-0.1268100E-06)
 number of electron       7.9999910 magnetization       0.0000481
 augmentation part        0.6155185 magnetization       0.0000431

 Broyden mixing:
  rms(total) = 0.54495E-04    rms(broyden)= 0.54368E-04
  rms(prec ) = 0.91333E-04
  weight for this iteration     100.00

 eigenvalues of (default mixing * dielectric matrix)
  average eigenvalue GAMMA=   1.6994
  6.3324  3.8569  2.7339  2.3641  1.5609  1.2144  1.0132  1.0132  0.9702  0.9702
  0.7920  0.7177  0.6793  0.6265  0.6458

 Free energy of the ion-electron system (eV)
  ---------------------------------------------------
  alpha Z        PSCENC =         0.43793512
  Ewald energy   TEWEN  =        25.21827333
  -1/2 Hartree   DENC   =      -416.26033141
  -exchange  EXHF       =         0.00000000
  -V(xc)+E(xc)   XCENC  =        33.85798225
  PAW double counting   =       353.51617865     -355.01867191
  entropy T*S    EENTRO =         0.00000000
  eigenvalues    EBANDS =      -110.05343863
  atomic energy  EATOM  =       453.86606646
  ---------------------------------------------------
  free energy    TOTEN  =       -14.43600615 eV

  energy without entropy =      -14.43600615  energy(sigma->0) =      -14.43600615


--------------------------------------------------------------------------------------------------------




----------------------------------------- Iteration    1(  21)  ---------------------------------------


    POTLOK:  cpu time    1.06: real time    1.06
    SETDIJ:  cpu time    0.03: real time    0.04
     EDDAV:  cpu time    1.13: real time    1.13
       DOS:  cpu time    0.00: real time    0.00
    CHARGE:  cpu time    0.11: real time    0.11
    MIXING:  cpu time    0.05: real time    0.05
    --------------------------------------------
      LOOP:  cpu time    2.39: real time    2.45

 eigenvalue-minimisations  :   104
 total energy-change (2. order) :-0.7178152E-05  (-0.1463235E-07)
 number of electron       7.9999910 magnetization      -0.0000324
 augmentation part        0.6155156 magnetization      -0.0000332

 Broyden mixing:
  rms(total) = 0.29112E-04    rms(broyden)= 0.29072E-04
  rms(prec ) = 0.57176E-04
  weight for this iteration     100.00

 eigenvalues of (default mixing * dielectric matrix)
  average eigenvalue GAMMA=   1.7084
  6.3941  4.0853  2.9419  2.3972  1.5928  1.4470  1.0144  1.0144  1.1427  0.9489
  0.9489  0.7658  0.6969  0.6790  0.6265  0.6393

 Free energy of the ion-electron system (eV)
  ---------------------------------------------------
  alpha Z        PSCENC =         0.43793512
  Ewald energy   TEWEN  =        25.21827333
  -1/2 Hartree   DENC   =      -416.26111117
  -exchange  EXHF       =         0.00000000
  -V(xc)+E(xc)   XCENC  =        33.85804536
  PAW double counting   =       353.51852349     -355.02101831
  entropy T*S    EENTRO =         0.00000000
  eigenvalues    EBANDS =      -110.05272760
  atomic energy  EATOM  =       453.86606646
  ---------------------------------------------------
  free energy    TOTEN  =       -14.43601332 eV

  energy without entropy =      -14.43601332  energy(sigma->0) =      -14.43601332


--------------------------------------------------------------------------------------------------------




----------------------------------------- Iteration    1(  22)  ---------------------------------------


    POTLOK:  cpu time    1.07: real time    1.07
    SETDIJ:  cpu time    0.04: real time    0.04
     EDDAV:  cpu time    1.13: real time    1.13
       DOS:  cpu time    0.00: real time    0.00
    CHARGE:  cpu time    0.11: real time    0.11
    MIXING:  cpu time    0.05: real time    0.07
    --------------------------------------------
      LOOP:  cpu time    2.40: real time    2.43

 eigenvalue-minimisations  :   104
 total energy-change (2. order) :-0.3381247E-05  (-0.7061845E-08)
 number of electron       7.9999910 magnetization      -0.0000274
 augmentation part        0.6155151 magnetization      -0.0000265

 Broyden mixing:
  rms(total) = 0.24129E-04    rms(broyden)= 0.24117E-04
  rms(prec ) = 0.39924E-04
  weight for this iteration     100.00

 eigenvalues of (default mixing * dielectric matrix)
  average eigenvalue GAMMA=   1.7296
  6.4376  4.3520  3.1228  2.4423  2.0809  1.5627  1.2249  1.0126  1.0126  0.9822
  0.9822  0.8316  0.7369  0.7034  0.6631  0.6261  0.6295

 Free energy of the ion-electron system (eV)
  ---------------------------------------------------
  alpha Z        PSCENC =         0.43793512
  Ewald energy   TEWEN  =        25.21827333
  -1/2 Hartree   DENC   =      -416.26106877
  -exchange  EXHF       =         0.00000000
  -V(xc)+E(xc)   XCENC  =        33.85806393
  PAW double counting   =       353.51953561     -355.02206978
  entropy T*S    EENTRO =         0.00000000
  eigenvalues    EBANDS =      -110.05275260
  atomic energy  EATOM  =       453.86606646
  ---------------------------------------------------
  free energy    TOTEN  =       -14.43601671 eV

  energy without entropy =      -14.43601671  energy(sigma->0) =      -14.43601671


--------------------------------------------------------------------------------------------------------




----------------------------------------- Iteration    1(  23)  ---------------------------------------


    POTLOK:  cpu time    1.07: real time    1.07
    SETDIJ:  cpu time    0.04: real time    0.04
     EDDAV:  cpu time    1.06: real time    1.06
       DOS:  cpu time    0.00: real time    0.00
    CHARGE:  cpu time    0.11: real time    0.11
    MIXING:  cpu time    0.05: real time    0.06
    --------------------------------------------
      LOOP:  cpu time    2.33: real time    2.35

 eigenvalue-minimisations  :    96
 total energy-change (2. order) :-0.5156163E-06  (-0.1209173E-08)
 number of electron       7.9999910 magnetization       0.0000066
 augmentation part        0.6155178 magnetization       0.0000071

 Broyden mixing:
  rms(total) = 0.76897E-05    rms(broyden)= 0.76758E-05
  rms(prec ) = 0.18356E-04
  weight for this iteration     100.00

 eigenvalues of (default mixing * dielectric matrix)
  average eigenvalue GAMMA=   1.7222
  6.4508  4.4503  3.2402  2.3899  2.3691  1.5793  1.3268  1.0123  1.0123  1.1212
  0.9564  0.9564  0.7968  0.7119  0.7119  0.6595  0.6246  0.6302

 Free energy of the ion-electron system (eV)
  ---------------------------------------------------
  alpha Z        PSCENC =         0.43793512
  Ewald energy   TEWEN  =        25.21827333
  -1/2 Hartree   DENC   =      -416.26054170
  -exchange  EXHF       =         0.00000000
  -V(xc)+E(xc)   XCENC  =        33.85804505
  PAW double counting   =       353.51961114     -355.02215497
  entropy T*S    EENTRO =         0.00000000
  eigenvalues    EBANDS =      -110.05325165
  atomic energy  EATOM  =       453.86606646
  ---------------------------------------------------
  free energy    TOTEN  =       -14.43601722 eV

  energy without entropy =      -14.43601722  energy(sigma->0) =      -14.43601722


--------------------------------------------------------------------------------------------------------




----------------------------------------- Iteration    1(  24)  ---------------------------------------


    POTLOK:  cpu time    1.06: real time    1.06
    SETDIJ:  cpu time    0.04: real time    0.04
     EDDAV:  cpu time    1.08: real time    1.08
       DOS:  cpu time    0.00: real time    0.00
    CHARGE:  cpu time    0.11: real time    0.11
    MIXING:  cpu time    0.06: real time    0.06
    --------------------------------------------
      LOOP:  cpu time    2.35: real time    2.36

 eigenvalue-minimisations  :    96
 total energy-change (2. order) :-0.4121005E-06  (-0.9801600E-09)
 number of electron       7.9999910 magnetization       0.0000111
 augmentation part        0.6155191 magnetization       0.0000110

 Broyden mixing:
  rms(total) = 0.96553E-05    rms(broyden)= 0.96498E-05
  rms(prec ) = 0.14652E-04
  weight for this iteration     100.00

 eigenvalues of (default mixing * dielectric matrix)
  average eigenvalue GAMMA=   1.7372
  6.4637  4.5213  3.4372  2.5996  2.4889  1.7785  1.5449  1.0119  1.0119  1.2104
  0.9957  0.9957  0.8710  0.7633  0.7068  0.6933  0.6562  0.6280  0.6280

 Free energy of the ion-electron system (eV)
  ---------------------------------------------------
  alpha Z        PSCENC =         0.43793512
  Ewald energy   TEWEN  =        25.21827333
  -1/2 Hartree   DENC   =      -416.26027259
  -exchange  EXHF       =         0.00000000
  -V(xc)+E(xc)   XCENC  =        33.85803749
  PAW double counting   =       353.51999883     -355.02254502
  entropy T*S    EENTRO =         0.00000000
  eigenvalues    EBANDS =      -110.05351126
  atomic energy  EATOM  =       453.86606646
  ---------------------------------------------------
  free energy    TOTEN  =       -14.43601763 eV

  energy without entropy =      -14.43601763  energy(sigma->0) =      -14.43601763


--------------------------------------------------------------------------------------------------------




----------------------------------------- Iteration    1(  25)  ---------------------------------------


    POTLOK:  cpu time    1.07: real time    1.07
    SETDIJ:  cpu time    0.03: real time    0.04
     EDDAV:  cpu time    1.21: real time    1.21
       DOS:  cpu time    0.00: real time    0.00
    CHARGE:  cpu time    0.11: real time    0.11
    MIXING:  cpu time    0.07: real time    0.07
    --------------------------------------------
      LOOP:  cpu time    2.50: real time    2.55

 eigenvalue-minimisations  :   112
 total energy-change (2. order) :-0.4830633E-07  (-0.2406209E-09)
 number of electron       7.9999910 magnetization       0.0000015
 augmentation part        0.6155182 magnetization       0.0000014

 Broyden mixing:
  rms(total) = 0.30064E-05    rms(broyden)= 0.30011E-05
  rms(prec ) = 0.51287E-05
  weight for this iteration     100.00

 eigenvalues of (default mixing * dielectric matrix)
  average eigenvalue GAMMA=   1.7486
  6.4857  4.6175  3.7818  2.9226  2.4274  1.9828  1.5784  1.0107  1.0107  1.2341
  1.1407  0.9684  0.9684  0.8032  0.7532  0.6996  0.6817  0.6513  0.6264  0.6264

 Free energy of the ion-electron system (eV)
  ---------------------------------------------------
  alpha Z        PSCENC =         0.43793512
  Ewald energy   TEWEN  =        25.21827333
  -1/2 Hartree   DENC   =      -416.26031443
  -exchange  EXHF       =         0.00000000
  -V(xc)+E(xc)   XCENC  =        33.85804260
  PAW double counting   =       353.52015436     -355.02270242
  entropy T*S    EENTRO =         0.00000000
  eigenvalues    EBANDS =      -110.05347269
  atomic energy  EATOM  =       453.86606646
  ---------------------------------------------------
  free energy    TOTEN  =       -14.43601768 eV

  energy without entropy =      -14.43601768  energy(sigma->0) =      -14.43601768


--------------------------------------------------------------------------------------------------------




----------------------------------------- Iteration    1(  26)  ---------------------------------------


    POTLOK:  cpu time    1.09: real time    1.09
    SETDIJ:  cpu time    0.03: real time    0.03
     EDDAV:  cpu time    1.01: real time    1.01
       DOS:  cpu time    0.00: real time    0.00
    CHARGE:  cpu time    0.11: real time    0.11
    MIXING:  cpu time    0.07: real time    0.07
    --------------------------------------------
      LOOP:  cpu time    2.32: real time    2.33

 eigenvalue-minimisations  :    88
 total energy-change (2. order) :-0.3942881E-07  (-0.6224976E-10)
 number of electron       7.9999910 magnetization      -0.0000029
 augmentation part        0.6155179 magnetization      -0.0000028

 Broyden mixing:
  rms(total) = 0.22968E-05    rms(broyden)= 0.22943E-05
  rms(prec ) = 0.35967E-05
  weight for this iteration     100.00

 eigenvalues of (default mixing * dielectric matrix)
  average eigenvalue GAMMA=   1.7769
  6.5048  4.8784  4.1481  3.0287  2.4402  2.1543  1.6697  1.4972  1.0115  1.0115
  1.2182  1.0388  0.9573  0.9573  0.7926  0.7349  0.6937  0.6755  0.6492  0.6232
  0.6289

 Free energy of the ion-electron system (eV)
  ---------------------------------------------------
  alpha Z        PSCENC =         0.43793512
  Ewald energy   TEWEN  =        25.21827333
  -1/2 Hartree   DENC   =      -416.26025926
  -exchange  EXHF       =         0.00000000
  -V(xc)+E(xc)   XCENC  =        33.85804079
  PAW double counting   =       353.51998204     -355.02252874
  entropy T*S    EENTRO =         0.00000000
  eigenvalues    EBANDS =      -110.05352746
  atomic energy  EATOM  =       453.86606646
  ---------------------------------------------------
  free energy    TOTEN  =       -14.43601772 eV

  energy without entropy =      -14.43601772  energy(sigma->0) =      -14.43601772


--------------------------------------------------------------------------------------------------------




----------------------------------------- Iteration    1(  27)  ---------------------------------------


    POTLOK:  cpu time    1.08: real time    1.08
    SETDIJ:  cpu time    0.04: real time    0.04
     EDDAV:  cpu time    1.18: real time    1.18
       DOS:  cpu time    0.00: real time    0.00
    CHARGE:  cpu time    0.11: real time    0.11
    MIXING:  cpu time    0.08: real time    0.08
    --------------------------------------------
      LOOP:  cpu time    2.48: real time    2.53

 eigenvalue-minimisations  :   108
 total energy-change (2. order) :-0.1440361E-07  (-0.2825651E-10)
 number of electron       7.9999910 magnetization      -0.0000013
 augmentation part        0.6155182 magnetization      -0.0000012

 Broyden mixing:
  rms(total) = 0.83709E-06    rms(broyden)= 0.83327E-06
  rms(prec ) = 0.12591E-05
  weight for this iteration     100.00

 eigenvalues of (default mixing * dielectric matrix)
  average eigenvalue GAMMA=   1.7971
  6.5254  5.4633  4.3327  3.1294  2.5225  2.3306  1.8279  1.5841  1.0114  1.0114
  1.1942  1.0850  0.9728  0.9728  0.8200  0.7763  0.7180  0.6915  0.6709  0.6444
  0.6232  0.6281

 Free energy of the ion-electron system (eV)
  ---------------------------------------------------
  alpha Z        PSCENC =         0.43793512
  Ewald energy   TEWEN  =        25.21827333
  -1/2 Hartree   DENC   =      -416.26018760
  -exchange  EXHF       =         0.00000000
  -V(xc)+E(xc)   XCENC  =        33.85803776
  PAW double counting   =       353.51982318     -355.02236696
  entropy T*S    EENTRO =         0.00000000
  eigenvalues    EBANDS =      -110.05359903
  atomic energy  EATOM  =       453.86606646
  ---------------------------------------------------
  free energy    TOTEN  =       -14.43601774 eV

  energy without entropy =      -14.43601774  energy(sigma->0) =      -14.43601774


--------------------------------------------------------------------------------------------------------




----------------------------------------- Iteration    1(  28)  ---------------------------------------


    POTLOK:  cpu time    1.08: real time    1.08
    SETDIJ:  cpu time    0.03: real time    0.04
     EDDAV:  cpu time    1.14: real time    1.14
       DOS:  cpu time    0.00: real time    0.00
    --------------------------------------------
      LOOP:  cpu time    2.26: real time    2.27

 eigenvalue-minimisations  :   104
 total energy-change (2. order) :-0.2261572E-08  (-0.4709122E-11)
 number of electron       7.9999910 magnetization      -0.0000013
 augmentation part        0.6155182 magnetization      -0.0000012

 Free energy of the ion-electron system (eV)
  ---------------------------------------------------
  alpha Z        PSCENC =         0.43793512
  Ewald energy   TEWEN  =        25.21827333
  -1/2 Hartree   DENC   =      -416.26018110
  -exchange  EXHF       =         0.00000000
  -V(xc)+E(xc)   XCENC  =        33.85803772
  PAW double counting   =       353.51981887     -355.02236244
  entropy T*S    EENTRO =         0.00000000
  eigenvalues    EBANDS =      -110.05360570
  atomic energy  EATOM  =       453.86606646
  ---------------------------------------------------
  free energy    TOTEN  =       -14.43601774 eV

  energy without entropy =      -14.43601774  energy(sigma->0) =      -14.43601774


--------------------------------------------------------------------------------------------------------




 average (electrostatic) potential at core
  the test charge radii are     0.5201  0.7215
  (the norm of the test charge is              1.0000)
       1 -44.4106       2 -44.4106       3 -82.1490
 
 
 
 E-fermi :  -7.0107     XC(G=0):  -1.0826     alpha+bet : -0.2541


 spin component 1

 k-point   1 :       0.0000    0.0000    0.0000
  band No.  band energies     occupation 
      1     -25.5942      1.00000
      2     -13.0233      1.00000
      3      -9.2868      1.00000
      4      -7.1225      1.00000
      5      -1.1097      0.00000
      6       0.9934      0.00000
      7       1.2294      0.00000
      8       1.6672      0.00000
      9       1.7250      0.00000
     10       1.8644      0.00000
     11       1.9825      0.00000
     12       2.9934      0.00000
     13       3.6310      0.00000
     14       3.7176      0.00000
     15       3.7892      0.00000
     16       3.9666      0.00000
     17       3.9826      0.00000
     18       4.1744      0.00000
     19       4.2463      0.00000
     20       4.2863      0.00000

 spin component 2

 k-point   1 :       0.0000    0.0000    0.0000
  band No.  band energies     occupation 
      1     -25.5942      1.00000
      2     -13.0233      1.00000
      3      -9.2868      1.00000
      4      -7.1225      1.00000
      5      -1.1099      0.00000
      6       0.9930      0.00000
      7       1.2293      0.00000
      8       1.6670      0.00000
      9       1.7247      0.00000
     10       1.8641      0.00000
     11       1.9820      0.00000
     12       2.9932      0.00000
     13       3.6305      0.00000
     14       3.7174      0.00000
     15       3.7891      0.00000
     16       3.9661      0.00000
     17       3.9822      0.00000
     18       4.1739      0.00000
     19       4.2458      0.00000
     20       4.2868      0.00000


--------------------------------------------------------------------------------------------------------


 soft charge-density along one line, spin component           1
         0         1         2         3         4         5         6         7         8         9
 total charge-density along one line
 
 soft charge-density along one line, spin component           2
         0         1         2         3         4         5         6         7         8         9
 total charge-density along one line
 
 pseudopotential strength for first ion, spin component:           1
 -2.382  -0.017   0.002  -0.002   0.000
 -0.017   0.049   0.002  -0.002   0.000
  0.002   0.002  -0.316  -0.005   0.000
 -0.002  -0.002  -0.005  -0.319   0.000
  0.000   0.000   0.000   0.000  -0.323
 pseudopotential strength for first ion, spin component:           2
 -2.382  -0.017   0.002  -0.002   0.000
 -0.017   0.049   0.002  -0.002   0.000
  0.002   0.002  -0.316  -0.005   0.000
 -0.002  -0.002  -0.005  -0.319   0.000
  0.000   0.000   0.000   0.000  -0.323
 total augmentation occupancy for first ion, spin component:           1
  1.625  -1.024  -0.378   0.278   0.000
 -1.024   0.829   0.254  -0.195   0.000
 -0.378   0.254   0.096  -0.056   0.000
  0.278  -0.195  -0.056   0.065   0.000
  0.000   0.000   0.000   0.000   0.034
 total augmentation occupancy for first ion, spin component:           2
  0.000   0.000   0.000   0.000   0.000
  0.000   0.000   0.000   0.000   0.000
  0.000   0.000   0.000   0.000   0.000
  0.000   0.000   0.000   0.000   0.000
  0.000   0.000   0.000   0.000   0.000


------------------------ aborting loop because EDIFF is reached ----------------------------------------


    CHARGE:  cpu time    0.11: real time    0.11
    FORLOC:  cpu time    0.04: real time    0.04
    FORNL :  cpu time    0.12: real time    0.12
    STRESS:  cpu time    0.24: real time    0.24
    FORHAR:  cpu time    0.14: real time    0.14
    MIXING:  cpu time    0.08: real time    0.08

  FORCE on cell =-STRESS in cart. coord.  units (eV):
  Direction    XX          YY          ZZ          XY          YZ          ZX
  --------------------------------------------------------------------------------------
  Alpha Z     0.43794     0.43794     0.43794
  Ewald     -54.86729    66.70474    13.38078     0.00000     0.00000     0.00000
  Hartree   127.80366   148.68054   139.77595     0.00000     0.00000     0.00000
  E(xc)     -36.15208   -35.65033   -35.84587     0.00000     0.00000     0.00000
  Local    -190.34730  -296.25233  -249.14444     0.00000     0.00000     0.00000
  n-local   -35.46829   -34.34705   -35.31911     0.00000     0.00000     0.00000
  augment     7.60537     5.44768     6.30004     0.00000     0.00000     0.00000
  Kinetic   169.42923   135.15960   149.86008     0.00000     0.00000     0.00000
  Fock        0.00000     0.00000     0.00000     0.00000     0.00000     0.00000
  -------------------------------------------------------------------------------------
  Total     -11.55876    -9.81922   -10.55463     0.00000     0.00000     0.00000
  in kB     -36.17027   -30.72681   -33.02810     0.00000     0.00000     0.00000
  external pressure =      -33.31 kB  Pullay stress =        0.00 kB


 VOLUME and BASIS-vectors are now :
 -----------------------------------------------------------------------------
  energy-cutoff  :      250.00
  volume of cell :      512.00
      direct lattice vectors                 reciprocal lattice vectors
     8.000000000  0.000000000  0.000000000     0.125000000  0.000000000  0.000000000
     0.000000000  8.000000000  0.000000000     0.000000000  0.125000000  0.000000000
     0.000000000  0.000000000  8.000000000     0.000000000  0.000000000  0.125000000

  length of vectors
     8.000000000  8.000000000  8.000000000     0.125000000  0.125000000  0.125000000


 FORCES acting on ions
    electron-ion (+dipol)            ewald-force                    non-local-force                 convergence-correction
 -----------------------------------------------------------------------------------------------
   0.247E-13 -.713E+02 0.514E+02   0.134E-17 0.780E+02 -.563E+02   0.000E+00 -.698E+01 0.510E+01   -.240E-14 -.181E-05 0.183E-05
   0.244E-13 0.713E+02 0.514E+02   -.170E-16 -.780E+02 -.563E+02   0.000E+00 0.698E+01 0.510E+01   -.164E-14 0.181E-05 0.183E-05
   0.269E-12 -.491E-12 -.634E+02   0.833E-16 -.370E-14 0.113E+03   0.000E+00 0.000E+00 -.497E+02   -.103E-13 -.137E-13 0.576E-05
 -----------------------------------------------------------------------------------------------
   0.318E-12 -.221E-12 0.394E+02   0.677E-16 -.370E-14 0.000E+00   0.000E+00 0.000E+00 -.395E+02   -.143E-13 -.151E-13 0.943E-05
 
 
 POSITION                                       TOTAL-FORCE (eV/Angst)
 -----------------------------------------------------------------------------------
      4.00000      4.76324      3.70185         0.000000     -0.236408      0.219996
      4.00000      3.23676      3.70185         0.000000      0.236408      0.219996
      4.00000      4.00000      4.29815         0.000000      0.000000     -0.439992
 -----------------------------------------------------------------------------------
    total drift:                                0.000000      0.000000     -0.063915


--------------------------------------------------------------------------------------------------------



  FREE ENERGIE OF THE ION-ELECTRON SYSTEM (eV)
  ---------------------------------------------------
  free  energy   TOTEN  =       -14.436018 eV

  energy  without entropy=      -14.436018  energy(sigma->0) =      -14.436018
 


--------------------------------------------------------------------------------------------------------


    POTLOK:  cpu time    1.11: real time    1.12


--------------------------------------------------------------------------------------------------------




--------------------------------------------------------------------------------------------------------


    WAVPRE:  cpu time    0.08: real time    0.08
    FEWALD:  cpu time    0.00: real time    0.00
    ORTHCH:  cpu time    0.03: real time    0.03
     LOOP+:  cpu time   62.00: real time   62.87


----------------------------------------- Iteration    2(   1)  ---------------------------------------


    POTLOK:  cpu time    1.08: real time    1.08
    SETDIJ:  cpu time    0.04: real time    0.04
     EDDAV:  cpu time    1.07: real time    1.07
       DOS:  cpu time    0.00: real time    0.00
    CHARGE:  cpu time    0.11: real time    0.11
    MIXING:  cpu time    0.02: real time    0.02
    --------------------------------------------
      LOOP:  cpu time    2.32: real time    2.32

 eigenvalue-minimisations  :    96
 total energy-change (2. order) : 0.1595112E-01  (-0.3075642E+00)
 number of electron       7.9999895 magnetization       0.0000000
 augmentation part        0.6364357 magnetization      -0.0000074

 Broyden mixing:
  rms(total) = 0.62131E-01    rms(broyden)= 0.60985E-01
  rms(prec ) = 0.80584E-01
  weight for this iteration     100.00

 Free energy of the ion-electron system (eV)
  ---------------------------------------------------
  alpha Z        PSCENC =         0.43793512
  Ewald energy   TEWEN  =        30.71143983
  -1/2 Hartree   DENC   =      -418.77470000
  -exchange  EXHF       =         0.00000000
  -V(xc)+E(xc)   XCENC  =        33.97653965
  PAW double counting   =       353.51982185     -355.02236574
  entropy T*S    EENTRO =         0.00000000
  eigenvalues    EBANDS =      -113.13480380
  atomic energy  EATOM  =       453.86606646
  ---------------------------------------------------
  free energy    TOTEN  =       -14.42006662 eV

  energy without entropy =      -14.42006662  energy(sigma->0) =      -14.42006662


--------------------------------------------------------------------------------------------------------




----------------------------------------- Iteration    2(   2)  ---------------------------------------


    POTLOK:  cpu time    1.08: real time    1.08
    SETDIJ:  cpu time    0.04: real time    0.04
     EDDAV:  cpu time    1.16: real time    1.16
       DOS:  cpu time    0.00: real time    0.00
    CHARGE:  cpu time    0.11: real time    0.11
    MIXING:  cpu time    0.02: real time    0.02
    --------------------------------------------
      LOOP:  cpu time    2.41: real time    2.47

 eigenvalue-minimisations  :   104
 total energy-change (2. order) : 0.5094095E-02  (-0.4576273E-02)
 number of electron       7.9999896 magnetization       0.0000000
 augmentation part        0.6321037 magnetization      -0.0000021

 Broyden mixing:
  rms(total) = 0.21672E-01    rms(broyden)= 0.21486E-01
  rms(prec ) = 0.27163E-01
  weight for this iteration     100.00

 eigenvalues of (default mixing * dielectric matrix)
[...]
 -0.002  -0.002  -0.005  -0.318   0.000
  0.000   0.000   0.000   0.000  -0.323
 total augmentation occupancy for first ion, spin component:           1
  1.648  -1.025  -0.394   0.286   0.000
 -1.025   0.830   0.261  -0.198   0.000
 -0.394   0.261   0.102  -0.060   0.000
  0.286  -0.198  -0.060   0.068   0.000
  0.000   0.000   0.000   0.000   0.036
 total augmentation occupancy for first ion, spin component:           2
  0.000   0.000   0.000   0.000   0.000
  0.000   0.000   0.000   0.000   0.000
  0.000   0.000   0.000   0.000   0.000
  0.000   0.000   0.000   0.000   0.000
  0.000   0.000   0.000   0.000   0.000


------------------------ aborting loop because EDIFF is reached ----------------------------------------


    CHARGE:  cpu time    0.11: real time    0.11
    FORLOC:  cpu time    0.04: real time    0.04
    FORNL :  cpu time    0.11: real time    0.11
    STRESS:  cpu time    0.25: real time    0.25
    FORHAR:  cpu time    0.14: real time    0.14
    MIXING:  cpu time    0.02: real time    0.02

  FORCE on cell =-STRESS in cart. coord.  units (eV):
  Direction    XX          YY          ZZ          XY          YZ          ZX
  --------------------------------------------------------------------------------------
  Alpha Z     0.43794     0.43794     0.43794
  Ewald     -54.86221    68.56057    12.87621     0.00000     0.00000     0.00000
  Hartree   128.20615   149.18787   139.94774     0.00000     0.00000     0.00000
  E(xc)     -36.21040   -35.70471   -35.90974     0.00000     0.00000     0.00000
  Local    -190.85147  -297.97655  -248.93450     0.00000     0.00000     0.00000
  n-local   -35.57104   -34.55836   -35.49137     0.00000     0.00000     0.00000
  augment     7.63034     5.45360     6.34134     0.00000     0.00000     0.00000
  Kinetic   169.65564   135.21311   150.46173     0.00000     0.00000     0.00000
  Fock        0.00000     0.00000     0.00000     0.00000     0.00000     0.00000
  -------------------------------------------------------------------------------------
  Total     -11.56505    -9.38652   -10.27065     0.00000     0.00000     0.00000
  in kB     -36.18995   -29.37279   -32.13946     0.00000     0.00000     0.00000
  external pressure =      -32.57 kB  Pullay stress =        0.00 kB


 VOLUME and BASIS-vectors are now :
 -----------------------------------------------------------------------------
  energy-cutoff  :      250.00
  volume of cell :      512.00
      direct lattice vectors                 reciprocal lattice vectors
     8.000000000  0.000000000  0.000000000     0.125000000  0.000000000  0.000000000
     0.000000000  8.000000000  0.000000000     0.000000000  0.125000000  0.000000000
     0.000000000  0.000000000  8.000000000     0.000000000  0.000000000  0.125000000

  length of vectors
     8.000000000  8.000000000  8.000000000     0.125000000  0.125000000  0.125000000


 FORCES acting on ions
    electron-ion (+dipol)            ewald-force                    non-local-force                 convergence-correction
 -----------------------------------------------------------------------------------------------
   0.231E-13 -.723E+02 0.515E+02   0.917E-17 0.795E+02 -.567E+02   0.000E+00 -.721E+01 0.521E+01   -.139E-14 -.391E-04 -.462E-04
   0.240E-13 0.723E+02 0.515E+02   0.121E-16 -.795E+02 -.567E+02   0.000E+00 0.721E+01 0.521E+01   -.142E-14 0.391E-04 -.462E-04
   0.269E-12 -.515E-12 -.637E+02   0.465E-16 -.844E-14 0.113E+03   0.000E+00 0.000E+00 -.498E+02   -.681E-14 0.275E-12 -.114E-02
 -----------------------------------------------------------------------------------------------
   0.316E-12 -.515E-12 0.393E+02   0.677E-16 0.200E-13 0.000E+00   0.000E+00 0.000E+00 -.394E+02   -.962E-14 0.278E-12 -.123E-02
 
 
 POSITION                                       TOTAL-FORCE (eV/Angst)
 -----------------------------------------------------------------------------------
      4.00000      4.76094      3.70478         0.000000     -0.001696      0.001504
      4.00000      3.23906      3.70478         0.000000      0.001696      0.001504
      4.00000      4.00000      4.29229         0.000000      0.000000     -0.003008
 -----------------------------------------------------------------------------------
    total drift:                                0.000000      0.000000     -0.055595


--------------------------------------------------------------------------------------------------------



  FREE ENERGIE OF THE ION-ELECTRON SYSTEM (eV)
  ---------------------------------------------------
  free  energy   TOTEN  =       -14.438540 eV

  energy  without entropy=      -14.438540  energy(sigma->0) =      -14.438540
 
 d Force =-0.1015446E-06[-0.319E-06, 0.116E-06]  d Energy =-0.1261228E-06 0.246E-07
 d Force = 0.1281498E-01[ 0.128E-01, 0.128E-01]  d Ewald  = 0.1281498E-01 0.122E-10


--------------------------------------------------------------------------------------------------------


    POTLOK:  cpu time    1.10: real time    1.11


--------------------------------------------------------------------------------------------------------


 Conjugate gradient step on ions:
 trial-energy change:    0.000000  1 .order    0.000000    0.000000    0.000000
  (g-gl).g =-0.866E-07      g.g   = 0.123E-06  gl.gl    = 0.130E-04
 g(Force)  = 0.123E-06   g(Stress)= 0.000E+00 ortho     = 0.137E-07
 gamma     =  -0.00666
 trial     =   0.94148
 opt step  =   0.25054  (harmonic =   0.25054) maximal distance =0.00001365
 next E    =   -14.438540   (d E  =   0.00000)


--------------------------------------------------------------------------------------------------------


    WAVPRE:  cpu time    0.09: real time    0.09
    FEWALD:  cpu time    0.00: real time    0.00
    ORTHCH:  cpu time    0.03: real time    0.03
     LOOP+:  cpu time    9.28: real time    9.42


----------------------------------------- Iteration    8(   1)  ---------------------------------------


    POTLOK:  cpu time    1.07: real time    1.07
    SETDIJ:  cpu time    0.03: real time    0.04
     EDDAV:  cpu time    0.95: real time    0.95
       DOS:  cpu time    0.00: real time    0.00
    CHARGE:  cpu time    0.11: real time    0.11
    MIXING:  cpu time    0.02: real time    0.02
    --------------------------------------------
      LOOP:  cpu time    2.19: real time    2.20

 eigenvalue-minimisations  :    80
 total energy-change (2. order) :-0.1211206E-06  (-0.9679728E-06)
 number of electron       7.9999908 magnetization       0.0000000
 augmentation part        0.6194300 magnetization       0.0000000

 Broyden mixing:
  rms(total) = 0.11132E-03    rms(broyden)= 0.10932E-03
  rms(prec ) = 0.14524E-03
  weight for this iteration     100.00

 Free energy of the ion-electron system (eV)
  ---------------------------------------------------
  alpha Z        PSCENC =         0.43793512
  Ewald energy   TEWEN  =        26.58402329
  -1/2 Hartree   DENC   =      -417.34617136
  -exchange  EXHF       =         0.00000000
  -V(xc)+E(xc)   XCENC  =        33.91400172
  PAW double counting   =       355.80259282     -357.31663311
  entropy T*S    EENTRO =         0.00000000
  eigenvalues    EBANDS =      -110.38035516
  atomic energy  EATOM  =       453.86606646
  ---------------------------------------------------
  free energy    TOTEN  =       -14.43854021 eV

  energy without entropy =      -14.43854021  energy(sigma->0) =      -14.43854021


--------------------------------------------------------------------------------------------------------




----------------------------------------- Iteration    8(   2)  ---------------------------------------


    POTLOK:  cpu time    1.07: real time    1.07
    SETDIJ:  cpu time    0.04: real time    0.04
     EDDAV:  cpu time    1.16: real time    1.16
       DOS:  cpu time    0.00: real time    0.00
    CHARGE:  cpu time    0.11: real time    0.11
    MIXING:  cpu time    0.02: real time    0.02
    --------------------------------------------
      LOOP:  cpu time    2.40: real time    2.40

 eigenvalue-minimisations  :   104
 total energy-change (2. order) :-0.6811092E-08  (-0.1958562E-07)
 number of electron       7.9999908 magnetization       0.0000000
 augmentation part        0.6194218 magnetization       0.0000000

 Broyden mixing:
  rms(total) = 0.33843E-04    rms(broyden)= 0.33428E-04
  rms(prec ) = 0.41978E-04
  weight for this iteration     100.00

 eigenvalues of (default mixing * dielectric matrix)
  average eigenvalue GAMMA=   1.1954
  1.1954

 Free energy of the ion-electron system (eV)
  ---------------------------------------------------
  alpha Z        PSCENC =         0.43793512
  Ewald energy   TEWEN  =        26.58402329
  -1/2 Hartree   DENC   =      -417.34867526
  -exchange  EXHF       =         0.00000000
  -V(xc)+E(xc)   XCENC  =        33.91414698
  PAW double counting   =       355.81118448     -357.32525670
  entropy T*S    EENTRO =         0.00000000
  eigenvalues    EBANDS =      -110.37796459
  atomic energy  EATOM  =       453.86606646
  ---------------------------------------------------
  free energy    TOTEN  =       -14.43854022 eV

  energy without entropy =      -14.43854022  energy(sigma->0) =      -14.43854022


--------------------------------------------------------------------------------------------------------




----------------------------------------- Iteration    8(   3)  ---------------------------------------


    POTLOK:  cpu time    1.07: real time    1.07
    SETDIJ:  cpu time    0.04: real time    0.04
     EDDAV:  cpu time    1.09: real time    1.09
       DOS:  cpu time    0.00: real time    0.00
    --------------------------------------------
      LOOP:  cpu time    2.20: real time    2.25

 eigenvalue-minimisations  :    96
 total energy-change (2. order) :-0.9799180E-08  (-0.3480940E-09)
 number of electron       7.9999908 magnetization       0.0000000
 augmentation part        0.6194218 magnetization       0.0000000

 Free energy of the ion-electron system (eV)
  ---------------------------------------------------
  alpha Z        PSCENC =         0.43793512
  Ewald energy   TEWEN  =        26.58402329
  -1/2 Hartree   DENC   =      -417.34906351
  -exchange  EXHF       =         0.00000000
  -V(xc)+E(xc)   XCENC  =        33.91417073
  PAW double counting   =       355.81437594     -357.32846604
  entropy T*S    EENTRO =         0.00000000
  eigenvalues    EBANDS =      -110.37758223
  atomic energy  EATOM  =       453.86606646
  ---------------------------------------------------
  free energy    TOTEN  =       -14.43854023 eV

  energy without entropy =      -14.43854023  energy(sigma->0) =      -14.43854023


--------------------------------------------------------------------------------------------------------




 average (electrostatic) potential at core
  the test charge radii are     0.5201  0.7215
  (the norm of the test charge is              1.0000)
       1 -44.5139       2 -44.5139       3 -82.1477
 
 
 
 E-fermi :  -7.0357     XC(G=0):  -1.0802     alpha+bet : -0.2541


 spin component 1

 k-point   1 :       0.0000    0.0000    0.0000
  band No.  band energies     occupation 
      1     -25.6617      1.00000
      2     -13.1269      1.00000
      3      -9.2656      1.00000
      4      -7.1346      1.00000
      5      -1.0924      0.00000
      6       1.0109      0.00000
      7       1.2479      0.00000
      8       1.6706      0.00000
      9       1.7279      0.00000
     10       1.8656      0.00000
     11       1.9826      0.00000
     12       3.0218      0.00000
     13       3.6454      0.00000
     14       3.7208      0.00000
     15       3.7939      0.00000
     16       3.9647      0.00000
     17       3.9860      0.00000
     18       4.1742      0.00000
     19       4.2470      0.00000
     20       4.2877      0.00000

 spin component 2

 k-point   1 :       0.0000    0.0000    0.0000
  band No.  band energies     occupation 
      1     -25.6617      1.00000
      2     -13.1269      1.00000
      3      -9.2656      1.00000
      4      -7.1346      1.00000
      5      -1.0924      0.00000
      6       1.0109      0.00000
      7       1.2479      0.00000
      8       1.6706      0.00000
      9       1.7279      0.00000
     10       1.8656      0.00000
     11       1.9826      0.00000
     12       3.0218      0.00000
     13       3.6454      0.00000
     14       3.7208      0.00000
     15       3.7939      0.00000
     16       3.9647      0.00000
     17       3.9860      0.00000
     18       4.1742      0.00000
     19       4.2470      0.00000
     20       4.2877      0.00000


--------------------------------------------------------------------------------------------------------


 soft charge-density along one line, spin component           1
         0         1         2         3         4         5         6         7         8         9
 total charge-density along one line
 
 soft charge-density along one line, spin component           2
         0         1         2         3         4         5         6         7         8         9
 total charge-density along one line
 
 pseudopotential strength for first ion, spin component:           1
 -2.383  -0.017   0.002  -0.002   0.000
 -0.017   0.049   0.003  -0.002   0.000
  0.002   0.003  -0.315  -0.005   0.000
 -0.002  -0.002  -0.005  -0.318   0.000
  0.000   0.000   0.000   0.000  -0.323
 pseudopotential strength for first ion, spin component:           2
 -2.383  -0.017   0.002  -0.002   0.000
 -0.017   0.049   0.003  -0.002   0.000
  0.002   0.003  -0.315  -0.005   0.000
 -0.002  -0.002  -0.005  -0.318   0.000
  0.000   0.000   0.000   0.000  -0.323
 total augmentation occupancy for first ion, spin component:           1
  1.648  -1.025  -0.395   0.286   0.000
 -1.025   0.830   0.261  -0.198   0.000
 -0.395   0.261   0.102  -0.060   0.000
  0.286  -0.198  -0.060   0.068   0.000
  0.000   0.000   0.000   0.000   0.036
 total augmentation occupancy for first ion, spin component:           2
  0.000   0.000   0.000   0.000   0.000
  0.000   0.000   0.000   0.000   0.000
  0.000   0.000   0.000   0.000   0.000
  0.000   0.000   0.000   0.000   0.000
  0.000   0.000   0.000   0.000   0.000


------------------------ aborting loop because EDIFF is reached ----------------------------------------


    CHARGE:  cpu time    0.11: real time    0.11
    FORLOC:  cpu time    0.04: real time    0.04
    FORNL :  cpu time    0.11: real time    0.11
    STRESS:  cpu time    0.25: real time    0.25
    FORHAR:  cpu time    0.14: real time    0.14
    MIXING:  cpu time    0.02: real time    0.02

  FORCE on cell =-STRESS in cart. coord.  units (eV):
  Direction    XX          YY          ZZ          XY          YZ          ZX
  --------------------------------------------------------------------------------------
  Alpha Z     0.43794     0.43794     0.43794
  Ewald     -54.86217    68.57257    12.87358     0.00000     0.00000     0.00000
  Hartree   128.20883   149.19123   139.94907     0.00000     0.00000     0.00000
  E(xc)     -36.21077   -35.70506   -35.91015     0.00000     0.00000     0.00000
  Local    -190.85483  -297.98773  -248.93384     0.00000     0.00000     0.00000
  n-local   -35.57172   -34.55976   -35.49254     0.00000     0.00000     0.00000
  augment     7.63053     5.45363     6.34161     0.00000     0.00000     0.00000
  Kinetic   169.65736   135.21366   150.46571     0.00000     0.00000     0.00000
  Fock        0.00000     0.00000     0.00000     0.00000     0.00000     0.00000
  -------------------------------------------------------------------------------------
  Total     -11.56485    -9.38351   -10.26862     0.00000     0.00000     0.00000
  in kB     -36.18933   -29.36339   -32.13312     0.00000     0.00000     0.00000
  external pressure =      -32.56 kB  Pullay stress =        0.00 kB


 VOLUME and BASIS-vectors are now :
 -----------------------------------------------------------------------------
  energy-cutoff  :      250.00
  volume of cell :      512.00
      direct lattice vectors                 reciprocal lattice vectors
     8.000000000  0.000000000  0.000000000     0.125000000  0.000000000  0.000000000
     0.000000000  8.000000000  0.000000000     0.000000000  0.125000000  0.000000000
     0.000000000  0.000000000  8.000000000     0.000000000  0.000000000  0.125000000

  length of vectors
     8.000000000  8.000000000  8.000000000     0.125000000  0.125000000  0.125000000


 FORCES acting on ions
    electron-ion (+dipol)            ewald-force                    non-local-force                 convergence-correction
 -----------------------------------------------------------------------------------------------
   0.230E-13 -.723E+02 0.515E+02   -.704E-18 0.795E+02 -.567E+02   0.000E+00 -.722E+01 0.521E+01   -.131E-14 0.218E-04 0.266E-04
   0.236E-13 0.723E+02 0.515E+02   -.131E-16 -.795E+02 -.567E+02   0.000E+00 0.722E+01 0.521E+01   -.190E-14 -.218E-04 0.266E-04
   0.270E-12 -.109E-11 -.637E+02   0.815E-16 0.438E-14 0.113E+03   0.000E+00 0.000E+00 -.498E+02   -.132E-13 -.154E-12 0.771E-03
 -----------------------------------------------------------------------------------------------
   0.316E-12 -.751E-12 0.393E+02   0.677E-16 0.438E-14 0.000E+00   0.000E+00 0.888E-15 -.394E+02   -.164E-13 -.164E-12 0.825E-03
 
 
 POSITION                                       TOTAL-FORCE (eV/Angst)
 -----------------------------------------------------------------------------------
      4.00000      4.76092      3.70480         0.000000      0.000007     -0.000005
      4.00000      3.23908      3.70480         0.000000     -0.000007     -0.000005
      4.00000      4.00000      4.29225         0.000000      0.000000      0.000009
 -----------------------------------------------------------------------------------
    total drift:                                0.000000      0.000000     -0.055506


--------------------------------------------------------------------------------------------------------



  FREE ENERGIE OF THE ION-ELECTRON SYSTEM (eV)
  ---------------------------------------------------
  free  energy   TOTEN  =       -14.438540 eV

  energy  without entropy=      -14.438540  energy(sigma->0) =      -14.438540
 
 d Force = 0.1165268E-06[-0.779E-09, 0.234E-06]  d Energy = 0.1414607E-06-0.249E-07
 d Force =-0.9404672E-02[-0.941E-02,-0.940E-02]  d Ewald  =-0.9404672E-02 0.222E-11


--------------------------------------------------------------------------------------------------------


    POTLOK:  cpu time    1.10: real time    1.10


--------------------------------------------------------------------------------------------------------




--------------------------------------------------------------------------------------------------------


  
 reached required accuracy - stopping structural energy minimisation
 writing wavefunctions
     LOOP+:  cpu time    8.63: real time    8.83
    4ORBIT:  cpu time    0.00: real time    0.00

 total amount of memory used by VASP on root node    67157. kBytes
========================================================================

   base      :      30000. kBytes
   nonl-proj :        814. kBytes
   fftplans  :       9204. kBytes
   grid      :      24150. kBytes
   one-center:         18. kBytes
   wavefun   :       2971. kBytes
 
  
  
 General timing and accounting informations for this job:
 ========================================================
  
                  Total CPU time used (sec):      204.570
                            User time (sec):      203.152
                          System time (sec):        1.418
                         Elapsed time (sec):      207.593
  
                   Maximum memory used (kb):           0.
                   Average memory used (kb):           0.
  
                          Minor page faults:       479021
                          Major page faults:            5
                 Voluntary context switches:         2816
