<?xml version="1.0" encoding="ISO-8859-1"?>
<modeling>
 <generator>
  <i name="program" type="string">vasp </i>
  <i name="version" type="string">5.2.12  </i>
  <i name="subversion" type="string">11Nov11 complex                                                      parallel </i>
  <i name="platform" type="string">LinuxIFC </i>
  <i name="date" type="string">2012 10 27 </i>
  <i name="time" type="string">16:07:40 </i>
 </generator>
 <incar>
  <i type="string" name="PREC">normal</i>
  <i type="int" name="ISPIN">     2</i>
  <i type="int" name="IBRION">     2</i>
  <i name="EDIFF">      0.00000001</i>
  <i type="int" name="NSW">    20</i>
  <i name="ENCUT">    250.00000000</i>
  <i type="int" name="NBANDS">    20</i>
  <i type="int" name="ISMEAR">     0</i>
  <i name="SIGMA">      0.01000000</i>
 </incar>
 <kpoints>
  <generation param="Monkhorst-Pack">
   <v type="int" name="divisions">       1        1        1 </v>
   <v name="usershift">      0.00000000       0.00000000       0.00000000 </v>
   <v name="genvec1">      1.00000000       0.00000000       0.00000000 </v>
   <v name="genvec2">      0.00000000       1.00000000       0.00000000 </v>
   <v name="genvec3">      0.00000000       0.00000000       1.00000000 </v>
   <v name="shift">      0.00000000       0.00000000       0.00000000 </v>
  </generation>
  <varray name="kpointlist" >
   <v>       0.00000000       0.00000000       0.00000000 </v>
  </varray>
  <varray name="weights" >
   <v>       1.00000000 </v>
  </varray>
 </kpoints>
 <parameters>
  <separator name="general" >
   <i type="string" name="SYSTEM">unknown system</i>
   <i type="logical" name="LCOMPAT"> F  </i>
  </separator>
  <separator name="electronic" >
   <i type="string" name="PREC">normal</i>
   <i name="ENMAX">    250.00000000</i>
   <i name="ENAUG">    605.39200000</i>
   <i name="EDIFF">      0.00000001</i>
   <i type="int" name="IALGO">    38</i>
   <i type="int" name="IWAVPR">    11</i>
   <i type="int" name="NBANDS">    20</i>
   <i name="NELECT">      8.00000000</i>
   <i type="int" name="TURBO">     0</i>
   <i type="int" name="IRESTART">     0</i>
   <i type="int" name="NREBOOT">     0</i>
   <i type="int" name="NMIN">     0</i>
   <i name="EREF">      0.00000000</i>
   <separator name="electronic smearing" >
    <i type="int" name="ISMEAR">     0</i>
    <i name="SIGMA">      0.01000000</i>
    <i name="KSPACING">      0.50000000</i>
    <i type="logical" name="KGAMMA"> T  </i>
   </separator>
   <separator name="electronic projectors" >
    <i type="logical" name="LREAL"> F  </i>
    <v name="ROPT">      0.00000000      0.00000000</v>
    <i type="int" name="LMAXPAW">  -100</i>
    <i type="int" name="LMAXMIX">     2</i>
    <i type="logical" name="NLSPLINE"> F  </i>
   </separator>
   <separator name="electronic startup" >
    <i type="int" name="ISTART">     0</i>
    <i type="int" name="ICHARG">     2</i>
    <i type="int" name="INIWAV">     1</i>
   </separator>
   <separator name="electronic spin" >
    <i type="int" name="ISPIN">     2</i>
    <i type="logical" name="LNONCOLLINEAR"> F  </i>
    <v name="MAGMOM">      1.00000000      1.00000000      1.00000000</v>
    <i name="NUPDOWN">     -1.00000000</i>
    <i type="logical" name="LSORBIT"> F  </i>
    <v name="SAXIS">      0.00000000      0.00000000      1.00000000</v>
    <i type="logical" name="LSPIRAL"> F  </i>
    <v name="QSPIRAL">      0.00000000      0.00000000      0.00000000</v>
    <i type="logical" name="LZEROZ"> F  </i>
   </separator>
   <separator name="electronic exchange-correlation" >
    <i type="logical" name="LASPH"> F  </i>
    <i type="logical" name="LMETAGGA"> F  </i>
   </separator>
   <separator name="electronic convergence" >
    <i type="int" name="NELM">    60</i>
    <i type="int" name="NELMDL">    -5</i>
    <i type="int" name="NELMIN">     2</i>
    <i name="ENINI">    250.00000000</i>
    <separator name="electronic convergence detail" >
     <i type="logical" name="LDIAG"> T  </i>
     <i type="logical" name="LSUBROT"> T  </i>
     <i name="WEIMIN">      0.00100000</i>
     <i name="EBREAK">      0.00000000</i>
     <i name="DEPER">      0.30000000</i>
     <i type="int" name="NRMM">     4</i>
     <i name="TIME">      0.40000000</i>
    </separator>
   </separator>
   <separator name="electronic mixer" >
    <i name="AMIX">      0.40000000</i>
    <i name="BMIX">      1.00000000</i>
    <i name="AMIN">      0.10000000</i>
    <i name="AMIX_MAG">      1.60000000</i>
    <i name="BMIX_MAG">      1.00000000</i>
    <separator name="electronic mixer details" >
     <i type="int" name="IMIX">     4</i>
     <i type="int" name="MAXMIX">   -45</i>
     <i name="WC">    100.00000000</i>
     <i type="int" name="INIMIX">     1</i>
     <i type="int" name="MIXPRE">     1</i>
     <i type="int" name="MREMOVE">     5</i>
    </separator>
   </separator>
   <separator name="electronic dipolcorrection" >
    <i type="logical" name="LDIPOL"> F  </i>
    <i type="logical" name="LMONO"> F  </i>
    <i type="int" name="IDIPOL">     0</i>
    <i name="EPSILON">      1.00000000</i>
    <v name="DIPOL">   -100.00000000   -100.00000000   -100.00000000</v>
    <i name="EFIELD">      0.00000000</i>
   </separator>
  </separator>
  <separator name="grids" >
   <i type="int" name="NGX">    32</i>
   <i type="int" name="NGY">    32</i>
   <i type="int" name="NGZ">    32</i>
   <i type="int" name="NGXF">    64</i>
   <i type="int" name="NGYF">    64</i>
   <i type="int" name="NGZF">    64</i>
   <i type="logical" name="ADDGRID"> F  </i>
  </separator>
  <separator name="ionic" >
   <i type="int" name="NSW">    20</i>
   <i type="int" name="IBRION">     2</i>
   <i type="int" name="ISIF">     2</i>
   <i name="PSTRESS">      0.00000000</i>
   <i name="EDIFFG">      0.00000010</i>
   <i type="int" name="NFREE">     1</i>
   <i name="POTIM">      0.50000000</i>
   <i name="SMASS">     -3.00000000</i>
   <i name="SCALEE">      1.00000000</i>
  </separator>
  <separator name="ionic md" >
   <i name="TEBEG">      0.00010000</i>
   <i name="TEEND">      0.00010000</i>
   <i type="int" name="NBLOCK">     1</i>
   <i type="int" name="KBLOCK">    20</i>
   <i type="int" name="NPACO">   256</i>
   <i name="APACO">     16.00000000</i>
  </separator>
  <separator name="symmetry" >
   <i type="int" name="ISYM">     2</i>
   <i name="SYMPREC">      0.00001000</i>
  </separator>
  <separator name="dos" >
   <i type="logical" name="LORBIT"> F  </i>
   <v name="RWIGS">     -1.00000000     -1.00000000</v>
   <i type="int" name="NEDOS">   301</i>
   <i name="EMIN">     10.00000000</i>
   <i name="EMAX">    -10.00000000</i>
   <i name="EFERMI">      0.00000000</i>
  </separator>
  <separator name="writing" >
   <i type="int" name="NWRITE">     2</i>
   <i type="logical" name="LWAVE"> T  </i>
   <i type="logical" name="LCHARG"> T  </i>
   <i type="logical" name="LPARD"> F  </i>
   <i type="logical" name="LVTOT"> F  </i>
   <i type="logical" name="LVHAR"> F  </i>
   <i type="logical" name="LELF"> F  </i>
   <i type="logical" name="LOPTICS"> F  </i>
   <v name="STM">      0.00000000      0.00000000      0.00000000      0.00000000      0.00000000      0.00000000      0.00000000</v>
  </separator>
  <separator name="performance" >
   <i type="int" name="NPAR">     1</i>
   <i type="int" name="NSIM">     4</i>
   <i type="int" name="NBLK">    -1</i>
   <i type="logical" name="LPLANE"> T  </i>
   <i type="logical" name="LSCALAPACK"> F  </i>
   <i type="logical" name="LSCAAWARE"> F  </i>
   <i type="logical" name="LSCALU"> F  </i>
   <i type="logical" name="LASYNC"> F  </i>
   <i type="logical" name="LORBITALREAL"> F  </i>
  </separator>
  <separator name="miscellaneous" >
   <i type="int" name="IDIOT">     3</i>
   <i type="logical" name="LMUSIC"> F  </i>
   <v name="POMASS">      1.00000000     16.00000000</v>
   <v name="DARWINR">      0.00000000      0.00000000</v>
   <v name="DARWINV">      1.00000000      1.00000000</v>
   <i type="logical" name="LCORR"> T  </i>
  </separator>
  <i type="logical" name="GGA_COMPAT"> T  </i>
  <i type="logical" name="LBERRY"> F  </i>
  <i type="int" name="ICORELEVEL">     0</i>
  <i type="logical" name="LDAU"> F  </i>
  <i type="int" name="I_CONSTRAINED_M">     0</i>
  <separator name="electronic exchange-correlation" >
   <i type="string" name="GGA">--</i>
   <i type="int" name="VOSKOWN">     0</i>
   <i type="logical" name="LHFCALC"> F  </i>
   <i type="string" name="PRECFOCK"></i>
   <i type="logical" name="LHFONE"> F  </i>
   <i type="logical" name="LRHFCALC"> F  </i>
   <i type="logical" name="LTHOMAS"> F  </i>
   <i type="logical" name="LMODELHF"> F  </i>
   <i name="ENCUT4O">     -1.00000000</i>
   <i type="int" name="EXXOEP">     0</i>
   <i type="int" name="FOURORBIT">     0</i>
   <i name="AEXX">      0.00000000</i>
   <i name="HFALPHA">      0.00000000</i>
   <i name="ALDAX">      1.00000000</i>
   <i name="AGGAX">      1.00000000</i>
   <i name="ALDAC">      1.00000000</i>
   <i name="AGGAC">      1.00000000</i>
   <i type="int" name="NKREDX">     1</i>
   <i type="int" name="NKREDY">     1</i>
   <i type="int" name="NKREDZ">     1</i>
   <i type="logical" name="SHIFTRED"> F  </i>
   <i type="logical" name="ODDONLY"> F  </i>
   <i type="logical" name="EVENONLY"> F  </i>
   <i type="int" name="LMAXFOCK">     0</i>
   <i type="int" name="NMAXFOCKAE">     0</i>
   <i type="logical" name="LFOCKAEDFT"> F  </i>
   <i name="HFSCREEN">      0.00000000</i>
   <i name="HFSCREENC">      0.00000000</i>
  </separator>
  <separator name="vdW DFT" >
   <i type="logical" name="LUSE_VDW"> F  </i>
   <i name="Zab_VDW">     -0.84910000</i>
   <i name="PARAM1">      0.12340000</i>
   <i name="PARAM2">      1.00000000</i>
   <i name="PARAM3">      0.00000000</i>
  </separator>
  <separator name="model GW" >
   <i type="int" name="MODEL_GW">     0</i>
   <i name="MODEL_EPS0">    102.40000000</i>
   <i name="MODEL_ALPHA">      1.00000000</i>
  </separator>
  <separator name="linear response parameters" >
   <i type="logical" name="LEPSILON"> F  </i>
   <i type="logical" name="LRPA"> F  </i>
   <i type="logical" name="LNABLA"> F  </i>
   <i type="logical" name="LVEL"> F  </i>
   <i type="int" name="KINTER">     0</i>
   <i name="CSHIFT">      0.10000000</i>
   <i name="OMEGAMAX">     -1.00000000</i>
  </separator>
  <separator name="orbital magnetization" >
   <i type="logical" name="NUCIND"> F  </i>
   <v name="MAGPOS">      0.00000000      0.00000000      0.00000000</v>
   <i type="logical" name="LNICSALL"> T  </i>
   <i type="logical" name="ORBITALMAG"> F  </i>
   <i type="logical" name="LMAGBLOCH"> F  </i>
   <i type="logical" name="LCHIMAG"> F  </i>
   <i type="logical" name="LGAUGE"> T  </i>
   <i type="int" name="MAGATOM">     0</i>
   <v name="MAGDIPOL">      0.00000000      0.00000000      0.00000000</v>
   <v name="AVECCONST">      0.00000000      0.00000000      0.00000000</v>
  </separator>
  <separator name="response functions" >
   <i type="logical" name="LADDER"> F  </i>
   <i type="logical" name="LHARTREE"> T  </i>
   <i type="int" name="IBSE">     0</i>
   <i type="logical" name="LTCTE"> F  </i>
   <i type="logical" name="LTETE"> F  </i>
   <i type="logical" name="LFXCEPS"> F  </i>
   <i type="logical" name="L2ORDER"> F  </i>
   <i type="logical" name="LUSEW"> F  </i>
   <i name="ENCUTGW">     -2.00000000</i>
   <i name="ENCUTGWSOFT">     -2.00000000</i>
   <i name="ENCUTLF">     -1.00000000</i>
   <i type="int" name="LMAXMP2">    -1</i>
   <i name="SCISSOR">      0.00000000</i>
   <i type="int" name="NOMEGA">     0</i>
   <i type="int" name="NOMEGAR">     0</i>
   <i type="int" name="NBANDSGW">    -1</i>
   <i type="int" name="NBANDSO">    -1</i>
   <i type="int" name="NBANDSV">    -1</i>
   <i name="OPTEMAX">      0.00000000</i>
   <i type="int" name="NELM">     1</i>
   <i type="int" name="DIM">     3</i>
   <i type="int" name="ANTIRES">     0</i>
   <i name="OMEGAMAX">    -30.00000000</i>
   <i name="OMEGATL">   -200.00000000</i>
   <i type="int" name="OMEGAGRID">     0</i>
   <i name="CSHIFT">     -0.10000000</i>
   <i type="logical" name="SELFENERGY"> F  </i>
   <i type="logical" name="LSPECTRAL"> F  </i>
   <i type="logical" name="ODDONLYGW"> F  </i>
   <i type="logical" name="EVENONLYGW"> F  </i>
   <i type="int" name="NKREDLFX">     1</i>
   <i type="int" name="NKREDLFY">     1</i>
   <i type="int" name="NKREDLFZ">     1</i>
   <i type="int" name="MAXMEM">  1800</i>
   <i type="int" name="TELESCOPE">     0</i>
  </separator>
 </parameters>
 <atominfo>
  <atoms>       3 </atoms>
  <types>       2 </types>
  <array name="atoms" >
   <dimension dim="1">ion</dimension>
   <field type="string">element</field>
   <field type="int">atomtype</field>
   <set>
    <rc><c>H </c><c>   1</c></rc>
    <rc><c>H </c><c>   1</c></rc>
    <rc><c>O </c><c>   2</c></rc>
   </set>
  </array>
  <array name="atomtypes" >
   <dimension dim="1">type</dimension>
   <field type="int">atomspertype</field>
   <field type="string">element</field>
   <field>mass</field>
   <field>valence</field>
   <field type="string">pseudopotential</field>
   <set>
    <rc><c>   2</c><c>H </c><c>      1.00000000</c><c>      1.00000000</c><c> PAW_PBE H 15Jun2001                    </c></rc>
    <rc><c>   1</c><c>O </c><c>     16.00000000</c><c>      6.00000000</c><c> PAW_PBE O 08Apr2002                    </c></rc>
   </set>
  </array>
 </atominfo>
 <structure name="initialpos" >
  <crystal>
   <varray name="basis" >
    <v>       8.00000000       0.00000000       0.00000000 </v>
    <v>       0.00000000       8.00000000       0.00000000 </v>
    <v>       0.00000000       0.00000000       8.00000000 </v>
   </varray>
   <i name="volume">    512.00000000 </i>
   <varray name="rec_basis" >
    <v>       0.12500000       0.00000000       0.00000000 </v>
    <v>       0.00000000       0.12500000       0.00000000 </v>
    <v>       0.00000000       0.00000000       0.12500000 </v>
   </varray>
  </crystal>
  <varray name="positions" >
   <v>       0.50000000       0.59540487       0.46273069 </v>
   <v>       0.50000000       0.40459513       0.46273069 </v>
   <v>       0.50000000       0.50000000       0.53726931 </v>
  </varray>
 </structure>
 <calculation>
  <scstep>
   <time name="dav">    0.99    0.99</time>
   <time name="total">    1.98    1.99</time>
   <energy>
    <i name="alphaZ">      0.43793512 </i>
    <i name="ewald">     25.21827333 </i>
    <i name="hartreedc">   -386.09297846 </i>
    <i name="XCdc">     33.05791009 </i>
    <i name="pawpsdc">    246.88637530 </i>
    <i name="pawaedc">   -248.74825379 </i>
    <i name="eentropy">     -0.00000028 </i>
    <i name="bandstr">    -83.33669747 </i>
    <i name="atom">    453.86606646 </i>
    <i name="e_fr_energy">     41.28863030 </i>
    <i name="e_wo_entrp">     41.28863058 </i>
    <i name="e_0_energy">     41.28863044 </i>
   </energy>
  </scstep>
  <scstep>
   <time name="dav">    1.14    1.14</time>
   <time name="total">    1.14    1.18</time>
   <energy>
    <i name="e_fr_energy">     -9.35844548 </i>
    <i name="e_wo_entrp">     -9.35844548 </i>
    <i name="e_0_energy">     -9.35844548 </i>
   </energy>
  </scstep>
  <scstep>
   <time name="dav">    1.02    1.02</time>
   <time name="total">    1.02    1.03</time>
   <energy>
    <i name="e_fr_energy">    -12.38768348 </i>
    <i name="e_wo_entrp">    -12.38768348 </i>
    <i name="e_0_energy">    -12.38768348 </i>
   </energy>
  </scstep>
  <scstep>
   <time name="dav">    1.12    1.12</time>
   <time name="total">    1.12    1.13</time>
   <energy>
    <i name="e_fr_energy">    -12.40406095 </i>
    <i name="e_wo_entrp">    -12.40406095 </i>
    <i name="e_0_energy">    -12.40406095 </i>
   </energy>
  </scstep>
  <scstep>
   <time name="dav">    0.92    0.92</time>
   <time name="total">    1.04    1.09</time>
   <energy>
    <i name="e_fr_energy">    -12.40419567 </i>
    <i name="e_wo_entrp">    -12.40419567 </i>
    <i name="e_0_energy">    -12.40419567 </i>
   </energy>
  </scstep>
  <scstep>
   <time name="dav">    0.95    0.95</time>
   <time name="total">    2.07    2.09</time>
   <energy>
    <i name="e_fr_energy">     -5.82906157 </i>
    <i name="e_wo_entrp">     -5.82906157 </i>
    <i name="e_0_energy">     -5.82906157 </i>
   </energy>
  </scstep>
  <scstep>
   <time name="dav">    0.89    0.89</time>
   <time name="total">    2.01    2.03</time>
   <energy>
    <i name="e_fr_energy">    -12.54301422 </i>
    <i name="e_wo_entrp">    -12.54301422 </i>
    <i name="e_0_energy">    -12.54301422 </i>
   </energy>
  </scstep>
  <scstep>
   <time name="dav">    0.99    0.99</time>
   <time name="total">    2.11    2.16</time>
   <energy>
    <i name="e_fr_energy">    -14.24411896 </i>
    <i name="e_wo_entrp">    -14.24411896 </i>
    <i name="e_0_energy">    -14.24411896 </i>
   </energy>
  </scstep>
  <scstep>
   <time name="dav">    0.92    0.92</time>
   <time name="total">    2.05    2.06</time>
   <energy>
    <i name="e_fr_energy">    -14.33283054 </i>
    <i name="e_wo_entrp">    -14.33283054 </i>
    <i name="e_0_energy">    -14.33283054 </i>
   </energy>
  </scstep>
  <scstep>
   <time name="dav">    1.04    1.04</time>
   <time name="total">    2.17    2.22</time>
   <energy>
    <i name="e_fr_energy">    -14.35877091 </i>
    <i name="e_wo_entrp">    -14.35877091 </i>
    <i name="e_0_energy">    -14.35877091 </i>
   </energy>
  </scstep>
  <scstep>
   <time name="dav">    0.98    0.98</time>
   <time name="total">    2.10    2.11</time>
   <energy>
    <i name="e_fr_energy">    -14.42134742 </i>
    <i name="e_wo_entrp">    -14.42134742 </i>
    <i name="e_0_energy">    -14.42134742 </i>
   </energy>
  </scstep>
  <scstep>
   <time name="dav">    1.15    1.15</time>
   <time name="total">    2.35    2.38</time>
   <energy>
    <i name="e_fr_energy">    -14.41850902 </i>
    <i name="e_wo_entrp">    -14.41850902 </i>
    <i name="e_0_energy">    -14.41850902 </i>
   </energy>
  </scstep>
  <scstep>
   <time name="dav">    1.01    1.01</time>
   <time name="total">    2.25    2.26</time>
   <energy>
    <i name="e_fr_energy">    -14.42856399 </i>
    <i name="e_wo_entrp">    -14.42856399 </i>
    <i name="e_0_energy">    -14.42856399 </i>
   </energy>
  </scstep>
  <scstep>
   <time name="dav">    1.29    1.29</time>
   <time name="total">    2.53    2.55</time>
   <energy>
    <i name="e_fr_energy">    -14.43182080 </i>
    <i name="e_wo_entrp">    -14.43182080 </i>
    <i name="e_0_energy">    -14.43182080 </i>
   </energy>
  </scstep>
  <scstep>
   <time name="dav">    1.02    1.02</time>
   <time name="total">    2.26    2.27</time>
   <energy>
    <i name="e_fr_energy">    -14.43458030 </i>
    <i name="e_wo_entrp">    -14.43458030 </i>
    <i name="e_0_energy">    -14.43458030 </i>
   </energy>
  </scstep>
  <scstep>
   <time name="dav">    1.14    1.14</time>
   <time name="total">    2.39    2.40</time>
   <energy>
    <i name="e_fr_energy">    -14.43479760 </i>
    <i name="e_wo_entrp">    -14.43479760 </i>
    <i name="e_0_energy">    -14.43479760 </i>
   </energy>
  </scstep>
  <scstep>
   <time name="dav">    0.94    0.94</time>
   <time name="total">    2.18    2.19</time>
   <energy>
    <i name="e_fr_energy">    -14.43567131 </i>
    <i name="e_wo_entrp">    -14.43567131 </i>
    <i name="e_0_energy">    -14.43567131 </i>
   </energy>
  </scstep>
  <scstep>
   <time name="dav">    1.07    1.07</time>
   <time name="total">    2.32    2.33</time>
   <energy>
    <i name="e_fr_energy">    -14.43589416 </i>
    <i name="e_wo_entrp">    -14.43589416 </i>
    <i name="e_0_energy">    -14.43589416 </i>
   </energy>
  </scstep>
  <scstep>
   <time name="dav">    1.17    1.17</time>
   <time name="total">    2.42    2.47</time>
   <energy>
    <i name="e_fr_energy">    -14.43596729 </i>
    <i name="e_wo_entrp">    -14.43596729 </i>
    <i name="e_0_energy">    -14.43596729 </i>
   </energy>
  </scstep>
  <scstep>
   <time name="dav">    1.21    1.21</time>
   <time name="total">    2.46    2.47</time>
   <energy>
    <i name="e_fr_energy">    -14.43600615 </i>
    <i name="e_wo_entrp">    -14.43600615 </i>
    <i name="e_0_energy">    -14.43600615 </i>
   </energy>
  </scstep>
  <scstep>
   <time name="dav">    1.13    1.13</time>
   <time name="total">    2.39    2.45</time>
   <energy>
    <i name="e_fr_energy">    -14.43601332 </i>
    <i name="e_wo_entrp">    -14.43601332 </i>
    <i name="e_0_energy">    -14.43601332 </i>
   </energy>
  </scstep>
  <scstep>
   <time name="dav">    1.13    1.13</time>
   <time name="total">    2.40    2.43</time>
   <energy>
    <i name="e_fr_energy">    -14.43601671 </i>
    <i name="e_wo_entrp">    -14.43601671 </i>
    <i name="e_0_energy">    -14.43601671 </i>
   </energy>
  </scstep>
  <scstep>
   <time name="dav">    1.06    1.06</time>
   <time name="total">    2.33    2.35</time>
   <energy>
    <i name="e_fr_energy">    -14.43601722 </i>
    <i name="e_wo_entrp">    -14.43601722 </i>
    <i name="e_0_energy">    -14.43601722 </i>
   </energy>
  </scstep>
  <scstep>
   <time name="dav">    1.08    1.08</time>
   <time name="total">    2.35    2.36</time>
   <energy>
    <i name="e_fr_energy">    -14.43601763 </i>
    <i name="e_wo_entrp">    -14.43601763 </i>
    <i name="e_0_energy">    -14.43601763 </i>
   </energy>
  </scstep>
  <scstep>
   <time name="dav">    1.21    1.21</time>
   <time name="total">    2.50    2.55</time>
   <energy>
    <i name="e_fr_energy">    -14.43601768 </i>
    <i name="e_wo_entrp">    -14.43601768 </i>
    <i name="e_0_energy">    -14.43601768 </i>
   </energy>
  </scstep>
  <scstep>
   <time name="dav">    1.01    1.01</time>
   <time name="total">    2.32    2.33</time>
   <energy>
    <i name="e_fr_energy">    -14.43601772 </i>
    <i name="e_wo_entrp">    -14.43601772 </i>
    <i name="e_0_energy">    -14.43601772 </i>
   </energy>
  </scstep>
  <scstep>
   <time name="dav">    1.18    1.18</time>
   <time name="total">    2.48    2.53</time>
   <energy>
    <i name="e_fr_energy">    -14.43601774 </i>
    <i name="e_wo_entrp">    -14.43601774 </i>
    <i name="e_0_energy">    -14.43601774 </i>
   </energy>
  </scstep>
  <scstep>
   <time name="dav">    1.14    1.14</time>
   <time name="total">    2.26    2.27</time>
   <energy>
    <i name="alphaZ">      0.43793512 </i>
    <i name="ewald">     25.21827333 </i>
    <i name="hartreedc">   -416.26018110 </i>
    <i name="XCdc">     33.85803772 </i>
    <i name="pawpsdc">    353.51981887 </i>
    <i name="pawaedc">   -355.02236244 </i>
    <i name="eentropy">      0.00000000 </i>
    <i name="bandstr">   -110.05360570 </i>
    <i name="atom">    453.86606646 </i>
    <i name="e_fr_energy">    -14.43601774 </i>
    <i name="e_wo_entrp">    -14.43601774 </i>
    <i name="e_0_energy">    -14.43601774 </i>
   </energy>
  </scstep>
  <parameters_embedded>
   <separator name="dft+d2" >
    <i type="logical" name="LVDW"> F  </i>
   </separator>
  </parameters_embedded>
  <structure>
   <crystal>
    <varray name="basis" >
     <v>       8.00000000       0.00000000       0.00000000 </v>
     <v>       0.00000000       8.00000000       0.00000000 </v>
     <v>       0.00000000       0.00000000       8.00000000 </v>
    </varray>
    <i name="volume">    512.00000000 </i>
    <varray name="rec_basis" >
     <v>       0.12500000       0.00000000       0.00000000 </v>
     <v>       0.00000000       0.12500000       0.00000000 </v>
     <v>       0.00000000       0.00000000       0.12500000 </v>
    </varray>
   </crystal>
   <varray name="positions" >
    <v>       0.50000000       0.59540487       0.46273069 </v>
    <v>       0.50000000       0.40459513       0.46273069 </v>
    <v>       0.50000000       0.50000000       0.53726931 </v>
   </varray>
  </structure>
  <varray name="forces" >
   <v>       0.00000000      -0.23640781       0.21999607 </v>
   <v>       0.00000000       0.23640781       0.21999607 </v>
   <v>       0.00000000       0.00000000      -0.43999215 </v>
  </varray>
  <varray name="stress" >
   <v>     -36.17026819       0.00000000       0.00000000 </v>
   <v>       0.00000000     -30.72680640       0.00000000 </v>
   <v>       0.00000000       0.00000000     -33.02810078 </v>
  </varray>
  <energy>
   <i name="e_fr_energy">    -14.43601774 </i>
   <i name="e_wo_entrp">    -14.43601774 </i>
   <i name="e_0_energy">      0.00000000 </i>
  </energy>
  <time name="totalsc">   62.00   62.87</time>
 </calculation>
 <calculation>
  <scstep>
   <time name="dav">    1.07    1.07</time>
   <time name="total">    2.32    2.32</time>
   <energy>
    <i name="alphaZ">      0.43793512 </i>
    <i name="ewald">     30.71143983 </i>
    <i name="hartreedc">   -418.77470000 </i>
    <i name="XCdc">     33.97653965 </i>
    <i name="pawpsdc">    353.51982185 </i>
    <i name="pawaedc">   -355.02236574 </i>
    <i name="eentropy">      0.00000000 </i>
    <i name="bandstr">   -113.13480380 </i>
    <i name="atom">    453.86606646 </i>
    <i name="e_fr_energy">    -14.42006662 </i>
    <i name="e_wo_entrp">    -14.42006662 </i>
    <i name="e_0_energy">    -14.42006662 </i>
   </energy>
  </scstep>
  <scstep>
   <time name="dav">    1.16    1.16</time>
   <time name="total">    2.41    2.47</time>
   <energy>
    <i name="e_fr_energy">    -14.41497252 </i>
    <i name="e_wo_entrp">    -14.41497252 </i>
    <i name="e_0_energy">    -14.41497252 </i>
   </energy>
  </scstep>
  <scstep>
   <time name="dav">    1.30    1.30</time>
   <time name="total">    2.55    2.56</time>
   <energy>
    <i name="e_fr_energy">    -14.41529860 </i>
    <i name="e_wo_entrp">    -14.41529860 </i>
    <i name="e_0_energy">    -14.41529860 </i>
   </energy>
  </scstep>
  <scstep>
   <time name="dav">    1.16    1.16</time>
   <time name="total">    2.41    2.42</time>
   <energy>
    <i name="e_fr_energy">    -14.41557589 </i>
    <i name="e_wo_entrp">    -14.41557589 </i>
    <i name="e_0_energy">    -14.41557589 </i>
   </energy>
  </scstep>
  <scstep>
   <time name="dav">    1.09    1.09</time>
   <time name="total">    2.33    2.35</time>
   <energy>
    <i name="e_fr_energy">    -14.41562175 </i>
    <i name="e_wo_entrp">    -14.41562175 </i>
    <i name="e_0_energy">    -14.41562175 </i>
   </energy>
  </scstep>
  <scstep>
   <time name="dav">    1.37    1.37</time>
   <time name="total">    2.62    2.64</time>
   <energy>
    <i name="e_fr_energy">    -14.41564907 </i>
    <i name="e_wo_entrp">    -14.41564907 </i>
    <i name="e_0_energy">    -14.41564907 </i>
   </energy>
  </scstep>
  <scstep>
   <time name="dav">    1.22    1.22</time>
   <time name="total">    2.45    2.47</time>
   <energy>
    <i name="e_fr_energy">    -14.41566858 </i>
    <i name="e_wo_entrp">    -14.41566858 </i>
    <i name="e_0_energy">    -14.41566858 </i>
   </energy>
  </scstep>
  <scstep>
   <time name="dav">    1.15    1.15</time>
   <time name="total">    2.39    2.40</time>
   <energy>
    <i name="e_fr_energy">    -14.41568621 </i>
    <i name="e_wo_entrp">    -14.41568621 </i>
    <i name="e_0_energy">    -14.41568621 </i>
   </energy>
  </scstep>
  <scstep>
   <time name="dav">    1.15    1.15</time>
   <time name="total">    2.39    2.40</time>
   <energy>
    <i name="e_fr_energy">    -14.41569824 </i>
    <i name="e_wo_entrp">    -14.41569824 </i>
    <i name="e_0_energy">    -14.41569824 </i>
   </energy>
  </scstep>
  <scstep>
   <time name="dav">    1.15    1.15</time>
   <time name="total">    2.39    2.40</time>
   <energy>
    <i name="e_fr_energy">    -14.41570273 </i>
    <i name="e_wo_entrp">    -14.41570273 </i>
    <i name="e_0_energy">    -14.41570273 </i>
   </energy>
  </scstep>
  <scstep>
   <time name="dav">    1.15    1.15</time>
   <time name="total">    2.39    2.41</time>
   <energy>
    <i name="e_fr_energy">    -14.41570433 </i>
    <i name="e_wo_entrp">    -14.41570433 </i>
    <i name="e_0_energy">    -14.41570433 </i>
   </energy>
  </scstep>
  <scstep>
   <time name="dav">    1.21    1.21</time>
   <time name="total">    2.45    2.47</time>
   <energy>
    <i name="e_fr_energy">    -14.41570472 </i>
    <i name="e_wo_entrp">    -14.41570472 </i>
    <i name="e_0_energy">    -14.41570472 </i>
   </energy>
  </scstep>
  <scstep>
   <time name="dav">    1.08    1.08</time>
   <time name="total">    2.32    2.33</time>
   <energy>
    <i name="e_fr_energy">    -14.41570486 </i>
    <i name="e_wo_entrp">    -14.41570486 </i>
    <i name="e_0_energy">    -14.41570486 </i>
   </energy>
  </scstep>
  <scstep>
   <time name="dav">    1.21    1.21</time>
   <time name="total">    2.46    2.47</time>
   <energy>
    <i name="e_fr_energy">    -14.41570488 </i>
    <i name="e_wo_entrp">    -14.41570488 </i>
    <i name="e_0_energy">    -14.41570488 </i>
   </energy>
  </scstep>
  <scstep>
   <time name="dav">    1.07    1.07</time>
   <time name="total">    2.17    2.18</time>
   <energy>
    <i name="alphaZ">      0.43793512 </i>
    <i name="ewald">     30.71143983 </i>
    <i name="hartreedc">   -420.58673680 </i>
    <i name="XCdc">     34.08186701 </i>
    <i name="pawpsdc">    362.87123196 </i>
    <i name="pawaedc">   -364.41997882 </i>
    <i name="eentropy">      0.00000000 </i>
    <i name="bandstr">   -111.37752964 </i>
    <i name="atom">    453.86606646 </i>
    <i name="e_fr_energy">    -14.41570488 </i>
    <i name="e_wo_entrp">    -14.41570488 </i>
    <i name="e_0_energy">    -14.41570488 </i>
   </energy>
  </scstep>
  <structure>
   <crystal>
    <varray name="basis" >
     <v>       8.00000000       0.00000000       0.00000000 </v>
     <v>       0.00000000       8.00000000       0.00000000 </v>
     <v>       0.00000000       0.00000000       8.00000000 </v>
    </varray>
    <i name="volume">    512.00000000 </i>
    <varray name="rec_basis" >
     <v>       0.12500000       0.00000000       0.00000000 </v>
     <v>       0.00000000       0.12500000       0.00000000 </v>
     <v>       0.00000000       0.00000000       0.12500000 </v>
    </varray>
   </crystal>
   <varray name="positions" >
    <v>       0.50000000       0.59397926       0.46405734 </v>
    <v>       0.50000000       0.40602074       0.46405734 </v>
    <v>       0.50000000       0.50000000       0.53461601 </v>
   </varray>
  </structure>
  <varray name="forces" >
   <v>       0.00000000       0.83542447      -0.69379595 </v>
   <v>       0.00000000      -0.83542447      -0.69379595 </v>
   <v>       0.00000000       0.00000000       1.38759190 </v>
  </varray>
  <varray name="stress" >
   <v>     -36.27740788       0.00000000       0.00000000 </v>
   <v>       0.00000000     -24.72613316       0.00000000 </v>
   <v>       0.00000000       0.00000000     -29.49475650 </v>
  </varray>
  <energy>
   <i name="e_fr_energy">    -14.41570488 </i>
   <i name="e_wo_entrp">    -14.41570488 </i>
   <i name="e_0_energy">      0.00000000 </i>
  </energy>
  <time name="totalsc">   37.99   38.25</time>
 </calculation>
 <calculation>
  <scstep>
   <time name="dav">    1.07    1.07</time>
   <time name="total">    2.30    2.30</time>
   <energy>
    <i name="alphaZ">      0.43793512 </i>
    <i name="ewald">     26.60539371 </i>
    <i name="hartreedc">   -418.70021614 </i>
    <i name="XCdc">     33.99281792 </i>
    <i name="pawpsdc">    362.87115494 </i>
    <i name="pawaedc">   -364.41990261 </i>
    <i name="eentropy">      0.00000000 </i>
    <i name="bandstr">   -109.09464461 </i>
    <i name="atom">    453.86606646 </i>
    <i name="e_fr_energy">    -14.44139520 </i>
    <i name="e_wo_entrp">    -14.44139520 </i>
    <i name="e_0_energy">    -14.44139520 </i>
   </energy>
  </scstep>
  <scstep>
   <time name="dav">    1.16    1.16</time>
   <time name="total">    2.40    2.40</time>
   <energy>
    <i name="e_fr_energy">    -14.43825538 </i>
    <i name="e_wo_entrp">    -14.43825538 </i>
    <i name="e_0_energy">    -14.43825538 </i>
   </energy>
  </scstep>
  <scstep>
   <time name="dav">    1.23    1.23</time>
   <time name="total">    2.47    2.70</time>
   <energy>
    <i name="e_fr_energy">    -14.43827526 </i>
    <i name="e_wo_entrp">    -14.43827526 </i>
    <i name="e_0_energy">    -14.43827526 </i>
   </energy>
  </scstep>
  <scstep>
   <time name="dav">    1.23    1.23</time>
   <time name="total">    2.47    2.49</time>
   <energy>
    <i name="e_fr_energy">    -14.43845197 </i>
    <i name="e_wo_entrp">    -14.43845197 </i>
    <i name="e_0_energy">    -14.43845197 </i>
   </energy>
  </scstep>
  <scstep>
   <time name="dav">    1.09    1.09</time>
   <time name="total">    2.34    2.39</time>
   <energy>
    <i name="e_fr_energy">    -14.43846998 </i>
    <i name="e_wo_entrp">    -14.43846998 </i>
    <i name="e_0_energy">    -14.43846998 </i>
   </energy>
  </scstep>
  <scstep>
   <time name="dav">    1.23    1.23</time>
   <time name="total">    2.48    2.49</time>
   <energy>
    <i name="e_fr_energy">    -14.43848947 </i>
    <i name="e_wo_entrp">    -14.43848947 </i>
    <i name="e_0_energy">    -14.43848947 </i>
   </energy>
  </scstep>
  <scstep>
   <time name="dav">    0.95    0.95</time>
   <time name="total">    2.19    2.20</time>
   <energy>
    <i name="e_fr_energy">    -14.43850579 </i>
    <i name="e_wo_entrp">    -14.43850579 </i>
    <i name="e_0_energy">    -14.43850579 </i>
   </energy>
  </scstep>
  <scstep>
   <time name="dav">    1.22    1.22</time>
   <time name="total">    2.46    2.47</time>
   <energy>
    <i name="e_fr_energy">    -14.43852443 </i>
    <i name="e_wo_entrp">    -14.43852443 </i>
    <i name="e_0_energy">    -14.43852443 </i>
   </energy>
  </scstep>
  <scstep>
   <time name="dav">    1.08    1.08</time>
   <time name="total">    2.32    2.38</time>
   <energy>
    <i name="e_fr_energy">    -14.43852850 </i>
    <i name="e_wo_entrp">    -14.43852850 </i>
    <i name="e_0_energy">    -14.43852850 </i>
   </energy>
  </scstep>
  <scstep>
   <time name="dav">    1.22    1.22</time>
   <time name="total">    2.47    2.48</time>
   <energy>
    <i name="e_fr_energy">    -14.43853118 </i>
    <i name="e_wo_entrp">    -14.43853118 </i>
    <i name="e_0_energy">    -14.43853118 </i>
   </energy>
  </scstep>
  <scstep>
   <time name="dav">    1.22    1.22</time>
   <time name="total">    2.47    2.48</time>
   <energy>
    <i name="e_fr_energy">    -14.43853188 </i>
    <i name="e_wo_entrp">    -14.43853188 </i>
    <i name="e_0_energy">    -14.43853188 </i>
   </energy>
  </scstep>
  <scstep>
   <time name="dav">    1.21    1.21</time>
   <time name="total">    2.45    2.47</time>
   <energy>
    <i name="e_fr_energy">    -14.43853206 </i>
    <i name="e_wo_entrp">    -14.43853206 </i>
    <i name="e_0_energy">    -14.43853206 </i>
   </energy>
  </scstep>
  <scstep>
   <time name="dav">    1.15    1.15</time>
   <time name="total">    2.39    2.40</time>
   <energy>
    <i name="e_fr_energy">    -14.43853211 </i>
    <i name="e_wo_entrp">    -14.43853211 </i>
    <i name="e_0_energy">    -14.43853211 </i>
   </energy>
  </scstep>
  <scstep>
   <time name="dav">    1.18    1.18</time>
   <time name="total">    2.27    2.32</time>
   <energy>
    <i name="alphaZ">      0.43793512 </i>
    <i name="ewald">     26.60539371 </i>
    <i name="hartreedc">   -417.36226956 </i>
    <i name="XCdc">     33.91485991 </i>
    <i name="pawpsdc">    355.83389394 </i>
    <i name="pawaedc">   -357.34774499 </i>
    <i name="eentropy">      0.00000000 </i>
    <i name="bandstr">   -110.38666671 </i>
    <i name="atom">    453.86606646 </i>
    <i name="e_fr_energy">    -14.43853211 </i>
    <i name="e_wo_entrp">    -14.43853211 </i>
    <i name="e_0_energy">    -14.43853211 </i>
   </energy>
  </scstep>
  <structure>
   <crystal>
    <varray name="basis" >
     <v>       8.00000000       0.00000000       0.00000000 </v>
     <v>       0.00000000       8.00000000       0.00000000 </v>
     <v>       0.00000000       0.00000000       8.00000000 </v>
    </varray>
    <i name="volume">    512.00000000 </i>
    <varray name="rec_basis" >
     <v>       0.12500000       0.00000000       0.00000000 </v>
     <v>       0.00000000       0.12500000       0.00000000 </v>
     <v>       0.00000000       0.00000000       0.12500000 </v>
    </varray>
   </crystal>
   <varray name="positions" >
    <v>       0.50000000       0.59503846       0.46307167 </v>
    <v>       0.50000000       0.40496154       0.46307167 </v>
    <v>       0.50000000       0.50000000       0.53658735 </v>
   </varray>
  </structure>
  <varray name="forces" >
   <v>       0.00000000       0.01057681       0.00277034 </v>
   <v>       0.00000000      -0.01057681       0.00277034 </v>
   <v>       0.00000000       0.00000000      -0.00554069 </v>
  </varray>
  <varray name="stress" >
   <v>     -36.18949049       0.00000000       0.00000000 </v>
   <v>       0.00000000     -29.31536825       0.00000000 </v>
   <v>       0.00000000       0.00000000     -32.13591455 </v>
  </varray>
  <energy>
   <i name="e_fr_energy">    -14.43853211 </i>
   <i name="e_wo_entrp">    -14.43853211 </i>
   <i name="e_0_energy">      0.00000000 </i>
  </energy>
  <time name="totalsc">   35.40   36.03</time>
 </calculation>
 <calculation>
  <scstep>
   <time name="dav">    0.94    0.94</time>
   <time name="total">    2.17    2.17</time>
   <energy>
    <i name="alphaZ">      0.43793512 </i>
    <i name="ewald">     26.59366414 </i>
    <i name="hartreedc">   -417.35251878 </i>
    <i name="XCdc">     33.91426566 </i>
    <i name="pawpsdc">    355.83403491 </i>
    <i name="pawaedc">   -357.34788650 </i>
    <i name="eentropy">      0.00000000 </i>
    <i name="bandstr">   -110.38410022 </i>
    <i name="atom">    453.86606646 </i>
    <i name="e_fr_energy">    -14.43853920 </i>
    <i name="e_wo_entrp">    -14.43853920 </i>
    <i name="e_0_energy">    -14.43853920 </i>
   </energy>
  </scstep>
  <scstep>
   <time name="dav">    1.02    1.02</time>
   <time name="total">    2.27    2.27</time>
   <energy>
    <i name="e_fr_energy">    -14.43853900 </i>
    <i name="e_wo_entrp">    -14.43853900 </i>
    <i name="e_0_energy">    -14.43853900 </i>
   </energy>
  </scstep>
  <scstep>
   <time name="dav">    1.06    1.06</time>
   <time name="total">    2.30    2.31</time>
   <energy>
    <i name="e_fr_energy">    -14.43853915 </i>
    <i name="e_wo_entrp">    -14.43853915 </i>
    <i name="e_0_energy">    -14.43853915 </i>
   </energy>
  </scstep>
  <scstep>
   <time name="dav">    1.23    1.23</time>
   <time name="total">    2.34    2.35</time>
   <energy>
    <i name="alphaZ">      0.43793512 </i>
    <i name="ewald">     26.59366414 </i>
    <i name="hartreedc">   -417.35463434 </i>
    <i name="XCdc">     33.91446967 </i>
    <i name="pawpsdc">    355.82654156 </i>
    <i name="pawaedc">   -357.34055661 </i>
    <i name="eentropy">      0.00000000 </i>
    <i name="bandstr">   -110.38202516 </i>
    <i name="atom">    453.86606646 </i>
    <i name="e_fr_energy">    -14.43853915 </i>
    <i name="e_wo_entrp">    -14.43853915 </i>
    <i name="e_0_energy">    -14.43853915 </i>
   </energy>
  </scstep>
  <structure>
   <crystal>
    <varray name="basis" >
     <v>       8.00000000       0.00000000       0.00000000 </v>
     <v>       0.00000000       8.00000000       0.00000000 </v>
     <v>       0.00000000       0.00000000       8.00000000 </v>
    </varray>
    <i name="volume">    512.00000000 </i>
    <varray name="rec_basis" >
     <v>       0.12500000       0.00000000       0.00000000 </v>
     <v>       0.00000000       0.12500000       0.00000000 </v>
     <v>       0.00000000       0.00000000       0.12500000 </v>
    </varray>
   </crystal>
   <varray name="positions" >
    <v>       0.50000000       0.59508789       0.46309043 </v>
    <v>       0.50000000       0.40491211       0.46309043 </v>
    <v>       0.50000000       0.50000000       0.53654984 </v>
   </varray>
  </structure>
  <varray name="forces" >
   <v>       0.00000000       0.00401259       0.00062926 </v>
   <v>       0.00000000      -0.00401259       0.00062926 </v>
   <v>       0.00000000       0.00000000      -0.00125853 </v>
  </varray>
  <varray name="stress" >
   <v>     -36.18843120       0.00000000       0.00000000 </v>
   <v>       0.00000000     -29.34317047       0.00000000 </v>
   <v>       0.00000000       0.00000000     -32.13170252 </v>
  </varray>
  <energy>
   <i name="e_fr_energy">    -14.43853915 </i>
   <i name="e_wo_entrp">    -14.43853915 </i>
   <i name="e_0_energy">      0.00000000 </i>
  </energy>
  <time name="totalsc">   11.02   11.12</time>
 </calculation>
 <calculation>
  <scstep>
   <time name="dav">    1.02    1.02</time>
   <time name="total">    2.27    2.27</time>
   <energy>
    <i name="alphaZ">      0.43793512 </i>
    <i name="ewald">     26.58306933 </i>
    <i name="hartreedc">   -417.34663066 </i>
    <i name="XCdc">     33.91397490 </i>
    <i name="pawpsdc">    355.82740304 </i>
    <i name="pawaedc">   -357.34144118 </i>
    <i name="eentropy">      0.00000000 </i>
    <i name="bandstr">   -110.37891647 </i>
    <i name="atom">    453.86606646 </i>
    <i name="e_fr_energy">    -14.43853946 </i>
    <i name="e_wo_entrp">    -14.43853946 </i>
    <i name="e_0_energy">    -14.43853946 </i>
   </energy>
  </scstep>
  <scstep>
   <time name="dav">    1.09    1.09</time>
   <time name="total">    2.33    2.34</time>
   <energy>
    <i name="e_fr_energy">    -14.43853927 </i>
    <i name="e_wo_entrp">    -14.43853927 </i>
    <i name="e_0_energy">    -14.43853927 </i>
   </energy>
  </scstep>
  <scstep>
   <time name="dav">    1.09    1.09</time>
   <time name="total">    2.34    2.38</time>
   <energy>
    <i name="e_fr_energy">    -14.43853937 </i>
    <i name="e_wo_entrp">    -14.43853937 </i>
    <i name="e_0_energy">    -14.43853937 </i>
   </energy>
  </scstep>
  <scstep>
   <time name="dav">    1.16    1.17</time>
   <time name="total">    2.41    2.43</time>
   <energy>
    <i name="e_fr_energy">    -14.43853940 </i>
    <i name="e_wo_entrp">    -14.43853940 </i>
    <i name="e_0_energy">    -14.43853940 </i>
   </energy>
  </scstep>
  <scstep>
   <time name="dav">    1.03    1.03</time>
   <time name="total">    2.28    2.33</time>
   <energy>
    <i name="e_fr_energy">    -14.43853949 </i>
    <i name="e_wo_entrp">    -14.43853949 </i>
    <i name="e_0_energy">    -14.43853949 </i>
   </energy>
  </scstep>
  <scstep>
   <time name="dav">    1.02    1.02</time>
   <time name="total">    2.27    2.28</time>
   <energy>
    <i name="e_fr_energy">    -14.43853961 </i>
    <i name="e_wo_entrp">    -14.43853961 </i>
    <i name="e_0_energy">    -14.43853961 </i>
   </energy>
  </scstep>
  <scstep>
   <time name="dav">    1.19    1.19</time>
   <time name="total">    2.43    2.44</time>
   <energy>
    <i name="e_fr_energy">    -14.43853966 </i>
    <i name="e_wo_entrp">    -14.43853966 </i>
    <i name="e_0_energy">    -14.43853966 </i>
   </energy>
  </scstep>
  <scstep>
   <time name="dav">    1.09    1.09</time>
   <time name="total">    2.32    2.34</time>
   <energy>
    <i name="e_fr_energy">    -14.43853969 </i>
    <i name="e_wo_entrp">    -14.43853969 </i>
    <i name="e_0_energy">    -14.43853969 </i>
   </energy>
  </scstep>
  <scstep>
   <time name="dav">    1.09    1.09</time>
   <time name="total">    2.33    2.34</time>
   <energy>
    <i name="e_fr_energy">    -14.43853970 </i>
    <i name="e_wo_entrp">    -14.43853970 </i>
    <i name="e_0_energy">    -14.43853970 </i>
   </energy>
  </scstep>
  <scstep>
   <time name="dav">    1.09    1.09</time>
   <time name="total">    2.19    2.20</time>
   <energy>
    <i name="alphaZ">      0.43793512 </i>
    <i name="ewald">     26.58306933 </i>
    <i name="hartreedc">   -417.34935211 </i>
    <i name="XCdc">     33.91418657 </i>
    <i name="pawpsdc">    355.82054111 </i>
    <i name="pawaedc">   -357.33474976 </i>
    <i name="eentropy">      0.00000000 </i>
    <i name="bandstr">   -110.37623643 </i>
    <i name="atom">    453.86606646 </i>
    <i name="e_fr_energy">    -14.43853971 </i>
    <i name="e_wo_entrp">    -14.43853971 </i>
    <i name="e_0_energy">    -14.43853971 </i>
   </energy>
  </scstep>
  <structure>
   <crystal>
    <varray name="basis" >
     <v>       8.00000000       0.00000000       0.00000000 </v>
     <v>       0.00000000       8.00000000       0.00000000 </v>
     <v>       0.00000000       0.00000000       8.00000000 </v>
    </varray>
    <i name="volume">    512.00000000 </i>
    <varray name="rec_basis" >
     <v>       0.12500000       0.00000000       0.00000000 </v>
     <v>       0.00000000       0.12500000       0.00000000 </v>
     <v>       0.00000000       0.00000000       0.12500000 </v>
    </varray>
   </crystal>
   <varray name="positions" >
    <v>       0.50000000       0.59513231       0.46310728 </v>
    <v>       0.50000000       0.40486769       0.46310728 </v>
    <v>       0.50000000       0.50000000       0.53651613 </v>
   </varray>
  </structure>
  <varray name="forces" >
   <v>       0.00000000      -0.00176883      -0.00134905 </v>
   <v>       0.00000000       0.00176883      -0.00134905 </v>
   <v>       0.00000000       0.00000000       0.00269809 </v>
  </varray>
  <varray name="stress" >
   <v>     -36.18975565       0.00000000       0.00000000 </v>
   <v>       0.00000000     -29.37037825       0.00000000 </v>
   <v>       0.00000000       0.00000000     -32.12979499 </v>
  </varray>
  <energy>
   <i name="e_fr_energy">    -14.43853971 </i>
   <i name="e_wo_entrp">    -14.43853971 </i>
   <i name="e_0_energy">      0.00000000 </i>
  </energy>
  <time name="totalsc">   25.10   25.35</time>
 </calculation>
 <calculation>
  <scstep>
   <time name="dav">    1.09    1.09</time>
   <time name="total">    2.32    2.32</time>
   <energy>
    <i name="alphaZ">      0.43793512 </i>
    <i name="ewald">     26.58743360 </i>
    <i name="hartreedc">   -417.35297691 </i>
    <i name="XCdc">     33.91440725 </i>
    <i name="pawpsdc">    355.82054890 </i>
    <i name="pawaedc">   -357.33475791 </i>
    <i name="eentropy">      0.00000000 </i>
    <i name="bandstr">   -110.37719667 </i>
    <i name="atom">    453.86606646 </i>
    <i name="e_fr_energy">    -14.43854015 </i>
    <i name="e_wo_entrp">    -14.43854015 </i>
    <i name="e_0_energy">    -14.43854015 </i>
   </energy>
  </scstep>
  <scstep>
   <time name="dav">    1.09    1.10</time>
   <time name="total">    2.34    2.38</time>
   <energy>
    <i name="e_fr_energy">    -14.43854015 </i>
    <i name="e_wo_entrp">    -14.43854015 </i>
    <i name="e_0_energy">    -14.43854015 </i>
   </energy>
  </scstep>
  <scstep>
   <time name="dav">    1.09    1.09</time>
   <time name="total">    2.33    2.33</time>
   <energy>
    <i name="e_fr_energy">    -14.43854019 </i>
    <i name="e_wo_entrp">    -14.43854019 </i>
    <i name="e_0_energy">    -14.43854019 </i>
   </energy>
  </scstep>
  <scstep>
   <time name="dav">    1.09    1.09</time>
   <time name="total">    2.34    2.63</time>
   <energy>
    <i name="e_fr_energy">    -14.43854021 </i>
    <i name="e_wo_entrp">    -14.43854021 </i>
    <i name="e_0_energy">    -14.43854021 </i>
   </energy>
  </scstep>
  <scstep>
   <time name="dav">    1.23    1.23</time>
   <time name="total">    2.34    2.35</time>
   <energy>
    <i name="alphaZ">      0.43793512 </i>
    <i name="ewald">     26.58743360 </i>
    <i name="hartreedc">   -417.35189386 </i>
    <i name="XCdc">     33.91431625 </i>
    <i name="pawpsdc">    355.82303343 </i>
    <i name="pawaedc">   -357.33717369 </i>
    <i name="eentropy">      0.00000000 </i>
    <i name="bandstr">   -110.37825753 </i>
    <i name="atom">    453.86606646 </i>
    <i name="e_fr_energy">    -14.43854021 </i>
    <i name="e_wo_entrp">    -14.43854021 </i>
    <i name="e_0_energy">    -14.43854021 </i>
   </energy>
  </scstep>
  <structure>
   <crystal>
    <varray name="basis" >
     <v>       8.00000000       0.00000000       0.00000000 </v>
     <v>       0.00000000       8.00000000       0.00000000 </v>
     <v>       0.00000000       0.00000000       8.00000000 </v>
    </varray>
    <i name="volume">    512.00000000 </i>
    <varray name="rec_basis" >
     <v>       0.12500000       0.00000000       0.00000000 </v>
     <v>       0.00000000       0.12500000       0.00000000 </v>
     <v>       0.00000000       0.00000000       0.12500000 </v>
    </varray>
   </crystal>
   <varray name="positions" >
    <v>       0.50000000       0.59511404       0.46310035 </v>
    <v>       0.50000000       0.40488596       0.46310035 </v>
    <v>       0.50000000       0.50000000       0.53652999 </v>
   </varray>
  </structure>
  <varray name="forces" >
   <v>       0.00000000       0.00062986      -0.00054038 </v>
   <v>       0.00000000      -0.00062986      -0.00054038 </v>
   <v>       0.00000000       0.00000000       0.00108077 </v>
  </varray>
  <varray name="stress" >
   <v>     -36.18951241       0.00000000       0.00000000 </v>
   <v>       0.00000000     -29.35949909       0.00000000 </v>
   <v>       0.00000000       0.00000000     -32.13083401 </v>
  </varray>
  <energy>
   <i name="e_fr_energy">    -14.43854021 </i>
   <i name="e_wo_entrp">    -14.43854021 </i>
   <i name="e_0_energy">      0.00000000 </i>
  </energy>
  <time name="totalsc">   13.61   14.00</time>
 </calculation>
 <calculation>
  <scstep>
   <time name="dav">    1.23    1.23</time>
   <time name="total">    2.47    2.47</time>
   <energy>
    <i name="alphaZ">      0.43793512 </i>
    <i name="ewald">     26.57461862 </i>
    <i name="hartreedc">   -417.34599050 </i>
    <i name="XCdc">     33.91404270 </i>
    <i name="pawpsdc">    355.82325002 </i>
    <i name="pawaedc">   -357.33738875 </i>
    <i name="eentropy">      0.00000000 </i>
    <i name="bandstr">   -110.37107381 </i>
    <i name="atom">    453.86606646 </i>
    <i name="e_fr_energy">    -14.43854014 </i>
    <i name="e_wo_entrp">    -14.43854014 </i>
    <i name="e_0_energy">    -14.43854014 </i>
   </energy>
  </scstep>
  <scstep>
   <time name="dav">    1.30    1.30</time>
   <time name="total">    2.54    2.58</time>
   <energy>
    <i name="e_fr_energy">    -14.43854009 </i>
    <i name="e_wo_entrp">    -14.43854009 </i>
    <i name="e_0_energy">    -14.43854009 </i>
   </energy>
  </scstep>
  <scstep>
   <time name="dav">    1.23    1.23</time>
   <time name="total">    2.33    2.35</time>
   <energy>
    <i name="alphaZ">      0.43793512 </i>
    <i name="ewald">     26.57461862 </i>
    <i name="hartreedc">   -417.34190010 </i>
    <i name="XCdc">     33.91380371 </i>
    <i name="pawpsdc">    355.80613927 </i>
    <i name="pawaedc">   -357.32020277 </i>
    <i name="eentropy">      0.00000000 </i>
    <i name="bandstr">   -110.37500040 </i>
    <i name="atom">    453.86606646 </i>
    <i name="e_fr_energy">    -14.43854009 </i>
    <i name="e_wo_entrp">    -14.43854009 </i>
    <i name="e_0_energy">    -14.43854009 </i>
   </energy>
  </scstep>
  <structure>
   <crystal>
    <varray name="basis" >
     <v>       8.00000000       0.00000000       0.00000000 </v>
     <v>       0.00000000       8.00000000       0.00000000 </v>
     <v>       0.00000000       0.00000000       8.00000000 </v>
    </varray>
    <i name="volume">    512.00000000 </i>
    <varray name="rec_basis" >
     <v>       0.12500000       0.00000000       0.00000000 </v>
     <v>       0.00000000       0.12500000       0.00000000 </v>
     <v>       0.00000000       0.00000000       0.12500000 </v>
    </varray>
   </crystal>
   <varray name="positions" >
    <v>       0.50000000       0.59511725       0.46309714 </v>
    <v>       0.50000000       0.40488275       0.46309714 </v>
    <v>       0.50000000       0.50000000       0.53653640 </v>
   </varray>
  </structure>
  <varray name="forces" >
   <v>       0.00000000      -0.00169559       0.00150416 </v>
   <v>       0.00000000       0.00169559       0.00150416 </v>
   <v>       0.00000000       0.00000000      -0.00300832 </v>
  </varray>
  <varray name="stress" >
   <v>     -36.18994799       0.00000000       0.00000000 </v>
   <v>       0.00000000     -29.37279345       0.00000000 </v>
   <v>       0.00000000       0.00000000     -32.13946144 </v>
  </varray>
  <energy>
   <i name="e_fr_energy">    -14.43854009 </i>
   <i name="e_wo_entrp">    -14.43854009 </i>
   <i name="e_0_energy">      0.00000000 </i>
  </energy>
  <time name="totalsc">    9.28    9.42</time>
 </calculation>
 <calculation>
  <scstep>
   <time name="dav">    0.95    0.95</time>
   <time name="total">    2.19    2.20</time>
   <energy>
    <i name="alphaZ">      0.43793512 </i>
    <i name="ewald">     26.58402329 </i>
    <i name="hartreedc">   -417.34617136 </i>
    <i name="XCdc">     33.91400172 </i>
    <i name="pawpsdc">    355.80259282 </i>
    <i name="pawaedc">   -357.31663311 </i>
    <i name="eentropy">      0.00000000 </i>
    <i name="bandstr">   -110.38035516 </i>
    <i name="atom">    453.86606646 </i>
    <i name="e_fr_energy">    -14.43854021 </i>
    <i name="e_wo_entrp">    -14.43854021 </i>
    <i name="e_0_energy">    -14.43854021 </i>
   </energy>
  </scstep>
  <scstep>
   <time name="dav">    1.16    1.16</time>
   <time name="total">    2.40    2.40</time>
   <energy>
    <i name="e_fr_energy">    -14.43854022 </i>
    <i name="e_wo_entrp">    -14.43854022 </i>
    <i name="e_0_energy">    -14.43854022 </i>
   </energy>
  </scstep>
  <scstep>
   <time name="dav">    1.09    1.09</time>
   <time name="total">    2.20    2.25</time>
   <energy>
    <i name="alphaZ">      0.43793512 </i>
    <i name="ewald">     26.58402329 </i>
    <i name="hartreedc">   -417.34906351 </i>
    <i name="XCdc">     33.91417073 </i>
    <i name="pawpsdc">    355.81437594 </i>
    <i name="pawaedc">   -357.32846604 </i>
    <i name="eentropy">      0.00000000 </i>
    <i name="bandstr">   -110.37758223 </i>
    <i name="atom">    453.86606646 </i>
    <i name="e_fr_energy">    -14.43854023 </i>
    <i name="e_wo_entrp">    -14.43854023 </i>
    <i name="e_0_energy">    -14.43854023 </i>
   </energy>
  </scstep>
  <structure>
   <crystal>
    <varray name="basis" >
     <v>       8.00000000       0.00000000       0.00000000 </v>
     <v>       0.00000000       8.00000000       0.00000000 </v>
     <v>       0.00000000       0.00000000       8.00000000 </v>
    </varray>
    <i name="volume">    512.00000000 </i>
    <varray name="rec_basis" >
     <v>       0.12500000       0.00000000       0.00000000 </v>
     <v>       0.00000000       0.12500000       0.00000000 </v>
     <v>       0.00000000       0.00000000       0.12500000 </v>
    </varray>
   </crystal>
   <varray name="positions" >
    <v>       0.50000000       0.59511489       0.46309949 </v>
    <v>       0.50000000       0.40488511       0.46309949 </v>
    <v>       0.50000000       0.50000000       0.53653170 </v>
   </varray>
  </structure>
  <varray name="forces" >
   <v>       0.00000000       0.00000686      -0.00000461 </v>
   <v>       0.00000000      -0.00000686      -0.00000461 </v>
   <v>       0.00000000       0.00000000       0.00000922 </v>
  </varray>
  <varray name="stress" >
   <v>     -36.18933266       0.00000000       0.00000000 </v>
   <v>       0.00000000     -29.36338740       0.00000000 </v>
   <v>       0.00000000       0.00000000     -32.13311686 </v>
  </varray>
  <energy>
   <i name="e_fr_energy">    -14.43854023 </i>
   <i name="e_wo_entrp">    -14.43854023 </i>
   <i name="e_0_energy">      0.00000000 </i>
  </energy>
  <time name="totalsc">    8.63    8.83</time>
  <eigenvalues>
   <array>
    <dimension dim="1">band</dimension>
    <dimension dim="2">kpoint</dimension>
    <dimension dim="3">spin</dimension>
    <field>eigene</field>
    <field>occ</field>
    <set>
     <set comment="spin 1">
      <set comment="kpoint 1">
       <r>  -25.6617    1.0000 </r>
       <r>  -13.1269    1.0000 </r>
       <r>   -9.2656    1.0000 </r>
       <r>   -7.1346    1.0000 </r>
       <r>   -1.0924    0.0000 </r>
       <r>    1.0109    0.0000 </r>
       <r>    1.2479    0.0000 </r>
       <r>    1.6706    0.0000 </r>
       <r>    1.7279    0.0000 </r>
       <r>    1.8656    0.0000 </r>
       <r>    1.9826    0.0000 </r>
       <r>    3.0218    0.0000 </r>
       <r>    3.6454    0.0000 </r>
       <r>    3.7208    0.0000 </r>
       <r>    3.7939    0.0000 </r>
       <r>    3.9647    0.0000 </r>
       <r>    3.9860    0.0000 </r>
       <r>    4.1742    0.0000 </r>
       <r>    4.2470    0.0000 </r>
       <r>    4.2877    0.0000 </r>
      </set>
     </set>
     <set comment="spin 2">
      <set comment="kpoint 1">
       <r>  -25.6617    1.0000 </r>
       <r>  -13.1269    1.0000 </r>
       <r>   -9.2656    1.0000 </r>
       <r>   -7.1346    1.0000 </r>
       <r>   -1.0924    0.0000 </r>
       <r>    1.0109    0.0000 </r>
       <r>    1.2479    0.0000 </r>
       <r>    1.6706    0.0000 </r>
       <r>    1.7279    0.0000 </r>
       <r>    1.8656    0.0000 </r>
       <r>    1.9826    0.0000 </r>
       <r>    3.0218    0.0000 </r>
       <r>    3.6454    0.0000 </r>
       <r>    3.7208    0.0000 </r>
       <r>    3.7939    0.0000 </r>
       <r>    3.9647    0.0000 </r>
       <r>    3.9860    0.0000 </r>
       <r>    4.1742    0.0000 </r>
       <r>    4.2470    0.0000 </r>
       <r>    4.2877    0.0000 </r>
      </set>
     </set>
    </set>
   </array>
  </eigenvalues>
  <separator name="orbital magnetization" >
   <v name="MAGDIPOLOUT">      0.00000000      0.00000000      0.00000000</v>
  </separator>
  <dos>
   <i name="efermi">     -7.03568071 </i>
   <total>
    <array>
     <dimension dim="1">gridpoints</dimension>
     <dimension dim="2">spin</dimension>
     <field>energy</field>
     <field>total</field>
     <field>integrated</field>
     <set>
      <set comment="spin 1">
       <r>   -27.1592     0.0000     0.0000 </r>
       <r>   -27.0494     0.0000     0.0000 </r>
       <r>   -26.9396     0.0000     0.0000 </r>
       <r>   -26.8297     0.0000     0.0000 </r>
       <r>   -26.7199     0.0000     0.0000 </r>
       <r>   -26.6101     0.0000     0.0000 </r>
       <r>   -26.5003     0.0000     0.0000 </r>
       <r>   -26.3905     0.0000     0.0000 </r>
       <r>   -26.2807     0.0000     0.0000 </r>
       <r>   -26.1708     0.0000     0.0000 </r>
       <r>   -26.0610     0.0000     0.0000 </r>
       <r>   -25.9512     0.0000     0.0000 </r>
       <r>   -25.8414     0.0000     0.0000 </r>
       <r>   -25.7316     0.0000     0.0000 </r>
       <r>   -25.6218     9.1063     1.0000 </r>
       <r>   -25.5120     0.0000     1.0000 </r>
       <r>   -25.4021     0.0000     1.0000 </r>
       <r>   -25.2923     0.0000     1.0000 </r>
       <r>   -25.1825     0.0000     1.0000 </r>
       <r>   -25.0727     0.0000     1.0000 </r>
       <r>   -24.9629     0.0000     1.0000 </r>
       <r>   -24.8531     0.0000     1.0000 </r>
       <r>   -24.7433     0.0000     1.0000 </r>
       <r>   -24.6334     0.0000     1.0000 </r>
       <r>   -24.5236     0.0000     1.0000 </r>
       <r>   -24.4138     0.0000     1.0000 </r>
       <r>   -24.3040     0.0000     1.0000 </r>
       <r>   -24.1942     0.0000     1.0000 </r>
       <r>   -24.0844     0.0000     1.0000 </r>
       <r>   -23.9746     0.0000     1.0000 </r>
       <r>   -23.8647     0.0000     1.0000 </r>
       <r>   -23.7549     0.0000     1.0000 </r>
       <r>   -23.6451     0.0000     1.0000 </r>
       <r>   -23.5353     0.0000     1.0000 </r>
       <r>   -23.4255     0.0000     1.0000 </r>
       <r>   -23.3157     0.0000     1.0000 </r>
       <r>   -23.2059     0.0000     1.0000 </r>
       <r>   -23.0960     0.0000     1.0000 </r>
       <r>   -22.9862     0.0000     1.0000 </r>
       <r>   -22.8764     0.0000     1.0000 </r>
       <r>   -22.7666     0.0000     1.0000 </r>
       <r>   -22.6568     0.0000     1.0000 </r>
       <r>   -22.5470     0.0000     1.0000 </r>
       <r>   -22.4372     0.0000     1.0000 </r>
       <r>   -22.3273     0.0000     1.0000 </r>
       <r>   -22.2175     0.0000     1.0000 </r>
       <r>   -22.1077     0.0000     1.0000 </r>
       <r>   -21.9979     0.0000     1.0000 </r>
       <r>   -21.8881     0.0000     1.0000 </r>
       <r>   -21.7783     0.0000     1.0000 </r>
       <r>   -21.6685     0.0000     1.0000 </r>
       <r>   -21.5586     0.0000     1.0000 </r>
       <r>   -21.4488     0.0000     1.0000 </r>
       <r>   -21.3390     0.0000     1.0000 </r>
       <r>   -21.2292     0.0000     1.0000 </r>
       <r>   -21.1194     0.0000     1.0000 </r>
       <r>   -21.0096     0.0000     1.0000 </r>
       <r>   -20.8998     0.0000     1.0000 </r>
       <r>   -20.7899     0.0000     1.0000 </r>
       <r>   -20.6801     0.0000     1.0000 </r>
       <r>   -20.5703     0.0000     1.0000 </r>
       <r>   -20.4605     0.0000     1.0000 </r>
       <r>   -20.3507     0.0000     1.0000 </r>
       <r>   -20.2409     0.0000     1.0000 </r>
       <r>   -20.1311     0.0000     1.0000 </r>
       <r>   -20.0212     0.0000     1.0000 </r>
       <r>   -19.9114     0.0000     1.0000 </r>
       <r>   -19.8016     0.0000     1.0000 </r>
       <r>   -19.6918     0.0000     1.0000 </r>
       <r>   -19.5820     0.0000     1.0000 </r>
       <r>   -19.4722     0.0000     1.0000 </r>
       <r>   -19.3624     0.0000     1.0000 </r>
       <r>   -19.2525     0.0000     1.0000 </r>
       <r>   -19.1427     0.0000     1.0000 </r>
       <r>   -19.0329     0.0000     1.0000 </r>
       <r>   -18.9231     0.0000     1.0000 </r>
       <r>   -18.8133     0.0000     1.0000 </r>
       <r>   -18.7035     0.0000     1.0000 </r>
       <r>   -18.5937     0.0000     1.0000 </r>
       <r>   -18.4838     0.0000     1.0000 </r>
       <r>   -18.3740     0.0000     1.0000 </r>
       <r>   -18.2642     0.0000     1.0000 </r>
       <r>   -18.1544     0.0000     1.0000 </r>
       <r>   -18.0446     0.0000     1.0000 </r>
       <r>   -17.9348     0.0000     1.0000 </r>
       <r>   -17.8250     0.0000     1.0000 </r>
       <r>   -17.7151     0.0000     1.0000 </r>
       <r>   -17.6053     0.0000     1.0000 </r>
       <r>   -17.4955     0.0000     1.0000 </r>
       <r>   -17.3857     0.0000     1.0000 </r>
       <r>   -17.2759     0.0000     1.0000 </r>
       <r>   -17.1661     0.0000     1.0000 </r>
       <r>   -17.0562     0.0000     1.0000 </r>
       <r>   -16.9464     0.0000     1.0000 </r>
       <r>   -16.8366     0.0000     1.0000 </r>
       <r>   -16.7268     0.0000     1.0000 </r>
       <r>   -16.6170     0.0000     1.0000 </r>
       <r>   -16.5072     0.0000     1.0000 </r>
       <r>   -16.3974     0.0000     1.0000 </r>
       <r>   -16.2875     0.0000     1.0000 </r>
       <r>   -16.1777     0.0000     1.0000 </r>
       <r>   -16.0679     0.0000     1.0000 </r>
       <r>   -15.9581     0.0000     1.0000 </r>
       <r>   -15.8483     0.0000     1.0000 </r>
       <r>   -15.7385     0.0000     1.0000 </r>
       <r>   -15.6287     0.0000     1.0000 </r>
       <r>   -15.5188     0.0000     1.0000 </r>
       <r>   -15.4090     0.0000     1.0000 </r>
       <r>   -15.2992     0.0000     1.0000 </r>
       <r>   -15.1894     0.0000     1.0000 </r>
       <r>   -15.0796     0.0000     1.0000 </r>
       <r>   -14.9698     0.0000     1.0000 </r>
       <r>   -14.8600     0.0000     1.0000 </r>
       <r>   -14.7501     0.0000     1.0000 </r>
       <r>   -14.6403     0.0000     1.0000 </r>
       <r>   -14.5305     0.0000     1.0000 </r>
       <r>   -14.4207     0.0000     1.0000 </r>
       <r>   -14.3109     0.0000     1.0000 </r>
       <r>   -14.2011     0.0000     1.0000 </r>
       <r>   -14.0913     0.0000     1.0000 </r>
       <r>   -13.9814     0.0000     1.0000 </r>
       <r>   -13.8716     0.0000     1.0000 </r>
       <r>   -13.7618     0.0000     1.0000 </r>
       <r>   -13.6520     0.0000     1.0000 </r>
       <r>   -13.5422     0.0000     1.0000 </r>
       <r>   -13.4324     0.0000     1.0000 </r>
       <r>   -13.3226     0.0000     1.0000 </r>
       <r>   -13.2127     0.0000     1.0000 </r>
       <r>   -13.1029     9.1031     1.9996 </r>
       <r>   -12.9931     0.0000     2.0000 </r>
       <r>   -12.8833     0.0000     2.0000 </r>
       <r>   -12.7735     0.0000     2.0000 </r>
       <r>   -12.6637     0.0000     2.0000 </r>
       <r>   -12.5539     0.0000     2.0000 </r>
       <r>   -12.4440     0.0000     2.0000 </r>
       <r>   -12.3342     0.0000     2.0000 </r>
       <r>   -12.2244     0.0000     2.0000 </r>
       <r>   -12.1146     0.0000     2.0000 </r>
       <r>   -12.0048     0.0000     2.0000 </r>
       <r>   -11.8950     0.0000     2.0000 </r>
       <r>   -11.7852     0.0000     2.0000 </r>
       <r>   -11.6753     0.0000     2.0000 </r>
       <r>   -11.5655     0.0000     2.0000 </r>
       <r>   -11.4557     0.0000     2.0000 </r>
       <r>   -11.3459     0.0000     2.0000 </r>
       <r>   -11.2361     0.0000     2.0000 </r>
       <r>   -11.1263     0.0000     2.0000 </r>
       <r>   -11.0165     0.0000     2.0000 </r>
       <r>   -10.9066     0.0000     2.0000 </r>
       <r>   -10.7968     0.0000     2.0000 </r>
       <r>   -10.6870     0.0000     2.0000 </r>
       <r>   -10.5772     0.0000     2.0000 </r>
       <r>   -10.4674     0.0000     2.0000 </r>
       <r>   -10.3576     0.0000     2.0000 </r>
       <r>   -10.2478     0.0000     2.0000 </r>
       <r>   -10.1379     0.0000     2.0000 </r>
       <r>   -10.0281     0.0000     2.0000 </r>
       <r>    -9.9183     0.0000     2.0000 </r>
       <r>    -9.8085     0.0000     2.0000 </r>
       <r>    -9.6987     0.0000     2.0000 </r>
       <r>    -9.5889     0.0000     2.0000 </r>
       <r>    -9.4791     0.0000     2.0000 </r>
       <r>    -9.3692     0.0000     2.0000 </r>
       <r>    -9.2594     7.3489     2.8070 </r>
       <r>    -9.1496     0.0000     3.0000 </r>
       <r>    -9.0398     0.0000     3.0000 </r>
       <r>    -8.9300     0.0000     3.0000 </r>
       <r>    -8.8202     0.0000     3.0000 </r>
       <r>    -8.7104     0.0000     3.0000 </r>
       <r>    -8.6005     0.0000     3.0000 </r>
       <r>    -8.4907     0.0000     3.0000 </r>
       <r>    -8.3809     0.0000     3.0000 </r>
       <r>    -8.2711     0.0000     3.0000 </r>
       <r>    -8.1613     0.0000     3.0000 </r>
       <r>    -8.0515     0.0000     3.0000 </r>
       <r>    -7.9416     0.0000     3.0000 </r>
       <r>    -7.8318     0.0000     3.0000 </r>
       <r>    -7.7220     0.0000     3.0000 </r>
       <r>    -7.6122     0.0000     3.0000 </r>
       <r>    -7.5024     0.0000     3.0000 </r>
       <r>    -7.3926     0.0000     3.0000 </r>
       <r>    -7.2828     0.0000     3.0000 </r>
       <r>    -7.1729     0.0000     3.0000 </r>
       <r>    -7.0631     9.1063     4.0000 </r>
       <r>    -6.9533     0.0000     4.0000 </r>
       <r>    -6.8435     0.0000     4.0000 </r>
       <r>    -6.7337     0.0000     4.0000 </r>
       <r>    -6.6239     0.0000     4.0000 </r>
       <r>    -6.5141     0.0000     4.0000 </r>
       <r>    -6.4042     0.0000     4.0000 </r>
       <r>    -6.2944     0.0000     4.0000 </r>
       <r>    -6.1846     0.0000     4.0000 </r>
       <r>    -6.0748     0.0000     4.0000 </r>
       <r>    -5.9650     0.0000     4.0000 </r>
       <r>    -5.8552     0.0000     4.0000 </r>
       <r>    -5.7454     0.0000     4.0000 </r>
       <r>    -5.6355     0.0000     4.0000 </r>
       <r>    -5.5257     0.0000     4.0000 </r>
       <r>    -5.4159     0.0000     4.0000 </r>
       <r>    -5.3061     0.0000     4.0000 </r>
       <r>    -5.1963     0.0000     4.0000 </r>
       <r>    -5.0865     0.0000     4.0000 </r>
       <r>    -4.9767     0.0000     4.0000 </r>
       <r>    -4.8668     0.0000     4.0000 </r>
       <r>    -4.7570     0.0000     4.0000 </r>
       <r>    -4.6472     0.0000     4.0000 </r>
       <r>    -4.5374     0.0000     4.0000 </r>
       <r>    -4.4276     0.0000     4.0000 </r>
       <r>    -4.3178     0.0000     4.0000 </r>
       <r>    -4.2080     0.0000     4.0000 </r>
       <r>    -4.0981     0.0000     4.0000 </r>
       <r>    -3.9883     0.0000     4.0000 </r>
       <r>    -3.8785     0.0000     4.0000 </r>
       <r>    -3.7687     0.0000     4.0000 </r>
       <r>    -3.6589     0.0000     4.0000 </r>
       <r>    -3.5491     0.0000     4.0000 </r>
       <r>    -3.4393     0.0000     4.0000 </r>
       <r>    -3.3294     0.0000     4.0000 </r>
       <r>    -3.2196     0.0000     4.0000 </r>
       <r>    -3.1098     0.0000     4.0000 </r>
       <r>    -3.0000     0.0000     4.0000 </r>
       <r>    -2.8902     0.0000     4.0000 </r>
       <r>    -2.7804     0.0000     4.0000 </r>
       <r>    -2.6706     0.0000     4.0000 </r>
       <r>    -2.5607     0.0000     4.0000 </r>
       <r>    -2.4509     0.0000     4.0000 </r>
       <r>    -2.3411     0.0000     4.0000 </r>
       <r>    -2.2313     0.0000     4.0000 </r>
       <r>    -2.1215     0.0000     4.0000 </r>
       <r>    -2.0117     0.0000     4.0000 </r>
       <r>    -1.9019     0.0000     4.0000 </r>
       <r>    -1.7920     0.0000     4.0000 </r>
       <r>    -1.6822     0.0000     4.0000 </r>
       <r>    -1.5724     0.0000     4.0000 </r>
       <r>    -1.4626     0.0000     4.0000 </r>
       <r>    -1.3528     0.0000     4.0000 </r>
       <r>    -1.2430     0.0000     4.0000 </r>
       <r>    -1.1332     0.0000     4.0000 </r>
       <r>    -1.0233     9.1063     5.0000 </r>
       <r>    -0.9135     0.0000     5.0000 </r>
       <r>    -0.8037     0.0000     5.0000 </r>
       <r>    -0.6939     0.0000     5.0000 </r>
       <r>    -0.5841     0.0000     5.0000 </r>
       <r>    -0.4743     0.0000     5.0000 </r>
       <r>    -0.3645     0.0000     5.0000 </r>
       <r>    -0.2546     0.0000     5.0000 </r>
       <r>    -0.1448     0.0000     5.0000 </r>
       <r>    -0.0350     0.0000     5.0000 </r>
       <r>     0.0748     0.0000     5.0000 </r>
       <r>     0.1846     0.0000     5.0000 </r>
       <r>     0.2944     0.0000     5.0000 </r>
       <r>     0.4042     0.0000     5.0000 </r>
       <r>     0.5141     0.0000     5.0000 </r>
       <r>     0.6239     0.0000     5.0000 </r>
       <r>     0.7337     0.0000     5.0000 </r>
       <r>     0.8435     0.0000     5.0000 </r>
       <r>     0.9533     0.0000     5.0000 </r>
       <r>     1.0631     9.1063     6.0000 </r>
       <r>     1.1729     0.0000     6.0000 </r>
       <r>     1.2828     9.1063     7.0000 </r>
       <r>     1.3926     0.0000     7.0000 </r>
       <r>     1.5024     0.0000     7.0000 </r>
       <r>     1.6122     0.0000     7.0000 </r>
       <r>     1.7220    10.9627     8.2039 </r>
       <r>     1.8318     0.0000     9.0000 </r>
       <r>     1.9417     9.1063    10.0000 </r>
       <r>     2.0515     9.1063    11.0000 </r>
       <r>     2.1613     0.0000    11.0000 </r>
       <r>     2.2711     0.0000    11.0000 </r>
       <r>     2.3809     0.0000    11.0000 </r>
       <r>     2.4907     0.0000    11.0000 </r>
       <r>     2.6005     0.0000    11.0000 </r>
       <r>     2.7104     0.0000    11.0000 </r>
       <r>     2.8202     0.0000    11.0000 </r>
       <r>     2.9300     0.0000    11.0000 </r>
       <r>     3.0398     9.0571    11.9946 </r>
       <r>     3.1496     0.0000    12.0000 </r>
       <r>     3.2594     0.0000    12.0000 </r>
       <r>     3.3692     0.0000    12.0000 </r>
       <r>     3.4791     0.0000    12.0000 </r>
       <r>     3.5889     0.0000    12.0000 </r>
       <r>     3.6987     9.1142    13.0009 </r>
       <r>     3.8085     8.9315    14.9808 </r>
       <r>     3.9183     0.0000    15.0000 </r>
       <r>     4.0281    18.2125    17.0000 </r>
       <r>     4.1379     0.0000    17.0000 </r>
       <r>     4.2478    14.0519    18.5431 </r>
       <r>     4.3576     9.1063    20.0000 </r>
       <r>     4.4674     0.0000    20.0000 </r>
       <r>     4.5772     0.0000    20.0000 </r>
       <r>     4.6870     0.0000    20.0000 </r>
       <r>     4.7968     0.0000    20.0000 </r>
       <r>     4.9066     0.0000    20.0000 </r>
       <r>     5.0165     0.0000    20.0000 </r>
       <r>     5.1263     0.0000    20.0000 </r>
       <r>     5.2361     0.0000    20.0000 </r>
       <r>     5.3459     0.0000    20.0000 </r>
       <r>     5.4557     0.0000    20.0000 </r>
       <r>     5.5655     0.0000    20.0000 </r>
       <r>     5.6753     0.0000    20.0000 </r>
       <r>     5.7852     0.0000    20.0000 </r>
      </set>
      <set comment="spin 2">
       <r>   -27.1592     0.0000     0.0000 </r>
       <r>   -27.0494     0.0000     0.0000 </r>
       <r>   -26.9396     0.0000     0.0000 </r>
       <r>   -26.8297     0.0000     0.0000 </r>
       <r>   -26.7199     0.0000     0.0000 </r>
       <r>   -26.6101     0.0000     0.0000 </r>
       <r>   -26.5003     0.0000     0.0000 </r>
       <r>   -26.3905     0.0000     0.0000 </r>
       <r>   -26.2807     0.0000     0.0000 </r>
       <r>   -26.1708     0.0000     0.0000 </r>
       <r>   -26.0610     0.0000     0.0000 </r>
       <r>   -25.9512     0.0000     0.0000 </r>
       <r>   -25.8414     0.0000     0.0000 </r>
       <r>   -25.7316     0.0000     0.0000 </r>
       <r>   -25.6218     9.1063     1.0000 </r>
       <r>   -25.5120     0.0000     1.0000 </r>
       <r>   -25.4021     0.0000     1.0000 </r>
       <r>   -25.2923     0.0000     1.0000 </r>
       <r>   -25.1825     0.0000     1.0000 </r>
       <r>   -25.0727     0.0000     1.0000 </r>
       <r>   -24.9629     0.0000     1.0000 </r>
       <r>   -24.8531     0.0000     1.0000 </r>
       <r>   -24.7433     0.0000     1.0000 </r>
       <r>   -24.6334     0.0000     1.0000 </r>
       <r>   -24.5236     0.0000     1.0000 </r>
       <r>   -24.4138     0.0000     1.0000 </r>
       <r>   -24.3040     0.0000     1.0000 </r>
       <r>   -24.1942     0.0000     1.0000 </r>
       <r>   -24.0844     0.0000     1.0000 </r>
       <r>   -23.9746     0.0000     1.0000 </r>
       <r>   -23.8647     0.0000     1.0000 </r>
       <r>   -23.7549     0.0000     1.0000 </r>
       <r>   -23.6451     0.0000     1.0000 </r>
       <r>   -23.5353     0.0000     1.0000 </r>
       <r>   -23.4255     0.0000     1.0000 </r>
       <r>   -23.3157     0.0000     1.0000 </r>
       <r>   -23.2059     0.0000     1.0000 </r>
       <r>   -23.0960     0.0000     1.0000 </r>
       <r>   -22.9862     0.0000     1.0000 </r>
       <r>   -22.8764     0.0000     1.0000 </r>
       <r>   -22.7666     0.0000     1.0000 </r>
       <r>   -22.6568     0.0000     1.0000 </r>
       <r>   -22.5470     0.0000     1.0000 </r>
       <r>   -22.4372     0.0000     1.0000 </r>
       <r>   -22.3273     0.0000     1.0000 </r>
       <r>   -22.2175     0.0000     1.0000 </r>
       <r>   -22.1077     0.0000     1.0000 </r>
       <r>   -21.9979     0.0000     1.0000 </r>
       <r>   -21.8881     0.0000     1.0000 </r>
       <r>   -21.7783     0.0000     1.0000 </r>
       <r>   -21.6685     0.0000     1.0000 </r>
       <r>   -21.5586     0.0000     1.0000 </r>
       <r>   -21.4488     0.0000     1.0000 </r>
       <r>   -21.3390     0.0000     1.0000 </r>
       <r>   -21.2292     0.0000     1.0000 </r>
       <r>   -21.1194     0.0000     1.0000 </r>
       <r>   -21.0096     0.0000     1.0000 </r>
       <r>   -20.8998     0.0000     1.0000 </r>
       <r>   -20.7899     0.0000     1.0000 </r>
       <r>   -20.6801     0.0000     1.0000 </r>
       <r>   -20.5703     0.0000     1.0000 </r>
       <r>   -20.4605     0.0000     1.0000 </r>
       <r>   -20.3507     0.0000     1.0000 </r>
       <r>   -20.2409     0.0000     1.0000 </r>
       <r>   -20.1311     0.0000     1.0000 </r>
       <r>   -20.0212     0.0000     1.0000 </r>
       <r>   -19.9114     0.0000     1.0000 </r>
       <r>   -19.8016     0.0000     1.0000 </r>
       <r>   -19.6918     0.0000     1.0000 </r>
       <r>   -19.5820     0.0000     1.0000 </r>
       <r>   -19.4722     0.0000     1.0000 </r>
       <r>   -19.3624     0.0000     1.0000 </r>
       <r>   -19.2525     0.0000     1.0000 </r>
       <r>   -19.1427     0.0000     1.0000 </r>
       <r>   -19.0329     0.0000     1.0000 </r>
       <r>   -18.9231     0.0000     1.0000 </r>
       <r>   -18.8133     0.0000     1.0000 </r>
       <r>   -18.7035     0.0000     1.0000 </r>
       <r>   -18.5937     0.0000     1.0000 </r>
       <r>   -18.4838     0.0000     1.0000 </r>
       <r>   -18.3740     0.0000     1.0000 </r>
       <r>   -18.2642     0.0000     1.0000 </r>
       <r>   -18.1544     0.0000     1.0000 </r>
       <r>   -18.0446     0.0000     1.0000 </r>
       <r>   -17.9348     0.0000     1.0000 </r>
       <r>   -17.8250     0.0000     1.0000 </r>
       <r>   -17.7151     0.0000     1.0000 </r>
       <r>   -17.6053     0.0000     1.0000 </r>
       <r>   -17.4955     0.0000     1.0000 </r>
       <r>   -17.3857     0.0000     1.0000 </r>
       <r>   -17.2759     0.0000     1.0000 </r>
       <r>   -17.1661     0.0000     1.0000 </r>
       <r>   -17.0562     0.0000     1.0000 </r>
       <r>   -16.9464     0.0000     1.0000 </r>
       <r>   -16.8366     0.0000     1.0000 </r>
       <r>   -16.7268     0.0000     1.0000 </r>
       <r>   -16.6170     0.0000     1.0000 </r>
       <r>   -16.5072     0.0000     1.0000 </r>
       <r>   -16.3974     0.0000     1.0000 </r>
       <r>   -16.2875     0.0000     1.0000 </r>
       <r>   -16.1777     0.0000     1.0000 </r>
       <r>   -16.0679     0.0000     1.0000 </r>
       <r>   -15.9581     0.0000     1.0000 </r>
       <r>   -15.8483     0.0000     1.0000 </r>
       <r>   -15.7385     0.0000     1.0000 </r>
       <r>   -15.6287     0.0000     1.0000 </r>
       <r>   -15.5188     0.0000     1.0000 </r>
       <r>   -15.4090     0.0000     1.0000 </r>
       <r>   -15.2992     0.0000     1.0000 </r>
       <r>   -15.1894     0.0000     1.0000 </r>
       <r>   -15.0796     0.0000     1.0000 </r>
       <r>   -14.9698     0.0000     1.0000 </r>
       <r>   -14.8600     0.0000     1.0000 </r>
       <r>   -14.7501     0.0000     1.0000 </r>
       <r>   -14.6403     0.0000     1.0000 </r>
       <r>   -14.5305     0.0000     1.0000 </r>
       <r>   -14.4207     0.0000     1.0000 </r>
       <r>   -14.3109     0.0000     1.0000 </r>
       <r>   -14.2011     0.0000     1.0000 </r>
       <r>   -14.0913     0.0000     1.0000 </r>
       <r>   -13.9814     0.0000     1.0000 </r>
       <r>   -13.8716     0.0000     1.0000 </r>
       <r>   -13.7618     0.0000     1.0000 </r>
       <r>   -13.6520     0.0000     1.0000 </r>
       <r>   -13.5422     0.0000     1.0000 </r>
       <r>   -13.4324     0.0000     1.0000 </r>
       <r>   -13.3226     0.0000     1.0000 </r>
       <r>   -13.2127     0.0000     1.0000 </r>
       <r>   -13.1029     9.1031     1.9996 </r>
       <r>   -12.9931     0.0000     2.0000 </r>
       <r>   -12.8833     0.0000     2.0000 </r>
       <r>   -12.7735     0.0000     2.0000 </r>
       <r>   -12.6637     0.0000     2.0000 </r>
       <r>   -12.5539     0.0000     2.0000 </r>
       <r>   -12.4440     0.0000     2.0000 </r>
       <r>   -12.3342     0.0000     2.0000 </r>
       <r>   -12.2244     0.0000     2.0000 </r>
       <r>   -12.1146     0.0000     2.0000 </r>
       <r>   -12.0048     0.0000     2.0000 </r>
       <r>   -11.8950     0.0000     2.0000 </r>
       <r>   -11.7852     0.0000     2.0000 </r>
       <r>   -11.6753     0.0000     2.0000 </r>
       <r>   -11.5655     0.0000     2.0000 </r>
       <r>   -11.4557     0.0000     2.0000 </r>
       <r>   -11.3459     0.0000     2.0000 </r>
       <r>   -11.2361     0.0000     2.0000 </r>
       <r>   -11.1263     0.0000     2.0000 </r>
       <r>   -11.0165     0.0000     2.0000 </r>
       <r>   -10.9066     0.0000     2.0000 </r>
       <r>   -10.7968     0.0000     2.0000 </r>
       <r>   -10.6870     0.0000     2.0000 </r>
       <r>   -10.5772     0.0000     2.0000 </r>
       <r>   -10.4674     0.0000     2.0000 </r>
       <r>   -10.3576     0.0000     2.0000 </r>
       <r>   -10.2478     0.0000     2.0000 </r>
       <r>   -10.1379     0.0000     2.0000 </r>
       <r>   -10.0281     0.0000     2.0000 </r>
       <r>    -9.9183     0.0000     2.0000 </r>
       <r>    -9.8085     0.0000     2.0000 </r>
       <r>    -9.6987     0.0000     2.0000 </r>
       <r>    -9.5889     0.0000     2.0000 </r>
       <r>    -9.4791     0.0000     2.0000 </r>
       <r>    -9.3692     0.0000     2.0000 </r>
       <r>    -9.2594     7.3489     2.8070 </r>
       <r>    -9.1496     0.0000     3.0000 </r>
       <r>    -9.0398     0.0000     3.0000 </r>
       <r>    -8.9300     0.0000     3.0000 </r>
       <r>    -8.8202     0.0000     3.0000 </r>
       <r>    -8.7104     0.0000     3.0000 </r>
       <r>    -8.6005     0.0000     3.0000 </r>
       <r>    -8.4907     0.0000     3.0000 </r>
       <r>    -8.3809     0.0000     3.0000 </r>
       <r>    -8.2711     0.0000     3.0000 </r>
       <r>    -8.1613     0.0000     3.0000 </r>
       <r>    -8.0515     0.0000     3.0000 </r>
       <r>    -7.9416     0.0000     3.0000 </r>
       <r>    -7.8318     0.0000     3.0000 </r>
       <r>    -7.7220     0.0000     3.0000 </r>
       <r>    -7.6122     0.0000     3.0000 </r>
       <r>    -7.5024     0.0000     3.0000 </r>
       <r>    -7.3926     0.0000     3.0000 </r>
       <r>    -7.2828     0.0000     3.0000 </r>
       <r>    -7.1729     0.0000     3.0000 </r>
       <r>    -7.0631     9.1063     4.0000 </r>
       <r>    -6.9533     0.0000     4.0000 </r>
       <r>    -6.8435     0.0000     4.0000 </r>
       <r>    -6.7337     0.0000     4.0000 </r>
       <r>    -6.6239     0.0000     4.0000 </r>
       <r>    -6.5141     0.0000     4.0000 </r>
       <r>    -6.4042     0.0000     4.0000 </r>
       <r>    -6.2944     0.0000     4.0000 </r>
       <r>    -6.1846     0.0000     4.0000 </r>
       <r>    -6.0748     0.0000     4.0000 </r>
       <r>    -5.9650     0.0000     4.0000 </r>
       <r>    -5.8552     0.0000     4.0000 </r>
       <r>    -5.7454     0.0000     4.0000 </r>
       <r>    -5.6355     0.0000     4.0000 </r>
       <r>    -5.5257     0.0000     4.0000 </r>
       <r>    -5.4159     0.0000     4.0000 </r>
       <r>    -5.3061     0.0000     4.0000 </r>
       <r>    -5.1963     0.0000     4.0000 </r>
       <r>    -5.0865     0.0000     4.0000 </r>
       <r>    -4.9767     0.0000     4.0000 </r>
       <r>    -4.8668     0.0000     4.0000 </r>
       <r>    -4.7570     0.0000     4.0000 </r>
       <r>    -4.6472     0.0000     4.0000 </r>
       <r>    -4.5374     0.0000     4.0000 </r>
       <r>    -4.4276     0.0000     4.0000 </r>
       <r>    -4.3178     0.0000     4.0000 </r>
       <r>    -4.2080     0.0000     4.0000 </r>
       <r>    -4.0981     0.0000     4.0000 </r>
       <r>    -3.9883     0.0000     4.0000 </r>
       <r>    -3.8785     0.0000     4.0000 </r>
       <r>    -3.7687     0.0000     4.0000 </r>
       <r>    -3.6589     0.0000     4.0000 </r>
       <r>    -3.5491     0.0000     4.0000 </r>
       <r>    -3.4393     0.0000     4.0000 </r>
       <r>    -3.3294     0.0000     4.0000 </r>
       <r>    -3.2196     0.0000     4.0000 </r>
       <r>    -3.1098     0.0000     4.0000 </r>
       <r>    -3.0000     0.0000     4.0000 </r>
       <r>    -2.8902     0.0000     4.0000 </r>
       <r>    -2.7804     0.0000     4.0000 </r>
       <r>    -2.6706     0.0000     4.0000 </r>
       <r>    -2.5607     0.0000     4.0000 </r>
       <r>    -2.4509     0.0000     4.0000 </r>
       <r>    -2.3411     0.0000     4.0000 </r>
       <r>    -2.2313     0.0000     4.0000 </r>
       <r>    -2.1215     0.0000     4.0000 </r>
       <r>    -2.0117     0.0000     4.0000 </r>
       <r>    -1.9019     0.0000     4.0000 </r>
       <r>    -1.7920     0.0000     4.0000 </r>
       <r>    -1.6822     0.0000     4.0000 </r>
       <r>    -1.5724     0.0000     4.0000 </r>
       <r>    -1.4626     0.0000     4.0000 </r>
       <r>    -1.3528     0.0000     4.0000 </r>
       <r>    -1.2430     0.0000     4.0000 </r>
       <r>    -1.1332     0.0000     4.0000 </r>
       <r>    -1.0233     9.1063     5.0000 </r>
       <r>    -0.9135     0.0000     5.0000 </r>
       <r>    -0.8037     0.0000     5.0000 </r>
       <r>    -0.6939     0.0000     5.0000 </r>
       <r>    -0.5841     0.0000     5.0000 </r>
       <r>    -0.4743     0.0000     5.0000 </r>
       <r>    -0.3645     0.0000     5.0000 </r>
       <r>    -0.2546     0.0000     5.0000 </r>
       <r>    -0.1448     0.0000     5.0000 </r>
       <r>    -0.0350     0.0000     5.0000 </r>
       <r>     0.0748     0.0000     5.0000 </r>
       <r>     0.1846     0.0000     5.0000 </r>
       <r>     0.2944     0.0000     5.0000 </r>
       <r>     0.4042     0.0000     5.0000 </r>
       <r>     0.5141     0.0000     5.0000 </r>
       <r>     0.6239     0.0000     5.0000 </r>
       <r>     0.7337     0.0000     5.0000 </r>
       <r>     0.8435     0.0000     5.0000 </r>
       <r>     0.9533     0.0000     5.0000 </r>
       <r>     1.0631     9.1063     6.0000 </r>
       <r>     1.1729     0.0000     6.0000 </r>
       <r>     1.2828     9.1063     7.0000 </r>
       <r>     1.3926     0.0000     7.0000 </r>
       <r>     1.5024     0.0000     7.0000 </r>
       <r>     1.6122     0.0000     7.0000 </r>
       <r>     1.7220    10.9626     8.2039 </r>
       <r>     1.8318     0.0000     9.0000 </r>
       <r>     1.9417     9.1063    10.0000 </r>
       <r>     2.0515     9.1063    11.0000 </r>
       <r>     2.1613     0.0000    11.0000 </r>
       <r>     2.2711     0.0000    11.0000 </r>
       <r>     2.3809     0.0000    11.0000 </r>
       <r>     2.4907     0.0000    11.0000 </r>
       <r>     2.6005     0.0000    11.0000 </r>
       <r>     2.7104     0.0000    11.0000 </r>
       <r>     2.8202     0.0000    11.0000 </r>
       <r>     2.9300     0.0000    11.0000 </r>
       <r>     3.0398     9.0571    11.9946 </r>
       <r>     3.1496     0.0000    12.0000 </r>
       <r>     3.2594     0.0000    12.0000 </r>
       <r>     3.3692     0.0000    12.0000 </r>
       <r>     3.4791     0.0000    12.0000 </r>
       <r>     3.5889     0.0000    12.0000 </r>
       <r>     3.6987     9.1142    13.0009 </r>
       <r>     3.8085     8.9315    14.9808 </r>
       <r>     3.9183     0.0000    15.0000 </r>
       <r>     4.0281    18.2125    17.0000 </r>
       <r>     4.1379     0.0000    17.0000 </r>
       <r>     4.2478    14.0539    18.5433 </r>
       <r>     4.3576     9.1063    20.0000 </r>
       <r>     4.4674     0.0000    20.0000 </r>
       <r>     4.5772     0.0000    20.0000 </r>
       <r>     4.6870     0.0000    20.0000 </r>
       <r>     4.7968     0.0000    20.0000 </r>
       <r>     4.9066     0.0000    20.0000 </r>
       <r>     5.0165     0.0000    20.0000 </r>
       <r>     5.1263     0.0000    20.0000 </r>
       <r>     5.2361     0.0000    20.0000 </r>
       <r>     5.3459     0.0000    20.0000 </r>
       <r>     5.4557     0.0000    20.0000 </r>
       <r>     5.5655     0.0000    20.0000 </r>
       <r>     5.6753     0.0000    20.0000 </r>
       <r>     5.7852     0.0000    20.0000 </r>
      </set>
     </set>
    </array>
   </total>
  </dos>
 </calculation>
 <structure name="finalpos" >
  <crystal>
   <varray name="basis" >
    <v>       8.00000000       0.00000000       0.00000000 </v>
    <v>       0.00000000       8.00000000       0.00000000 </v>
    <v>       0.00000000       0.00000000       8.00000000 </v>
   </varray>
   <i name="volume">    512.00000000 </i>
   <varray name="rec_basis" >
    <v>       0.12500000       0.00000000       0.00000000 </v>
    <v>       0.00000000       0.12500000       0.00000000 </v>
    <v>       0.00000000       0.00000000       0.12500000 </v>
   </varray>
  </crystal>
  <varray name="positions" >
   <v>       0.50000000       0.59511489       0.46309949 </v>
   <v>       0.50000000       0.40488511       0.46309949 </v>
   <v>       0.50000000       0.50000000       0.53653170 </v>
  </varray>
 </structure>
</modeling>
